 Entering Gaussian System, Link 0=g16
 Initial command:
 /opt/g16/l1.exe "/scratch/541/Gau-445470.inp" -scrdir="/scratch/541/"
 Entering Link 1 = /opt/g16/l1.exe PID=    445471.
  
 Copyright (c) 1988-2017, Gaussian, Inc.  All Rights Reserved.
  
 This is part of the Gaussian(R) 16 program.  It is based on
 the Gaussian(R) 09 system (copyright 2009, Gaussian, Inc.),
 the Gaussian(R) 03 system (copyright 2003, Gaussian, Inc.),
 the Gaussian(R) 98 system (copyright 1998, Gaussian, Inc.),
 the Gaussian(R) 94 system (copyright 1995, Gaussian, Inc.),
 the Gaussian 92(TM) system (copyright 1992, Gaussian, Inc.),
 the Gaussian 90(TM) system (copyright 1990, Gaussian, Inc.),
 the Gaussian 88(TM) system (copyright 1988, Gaussian, Inc.),
 the Gaussian 86(TM) system (copyright 1986, Carnegie Mellon
 University), and the Gaussian 82(TM) system (copyright 1983,
 Carnegie Mellon University). Gaussian is a federally registered
 trademark of Gaussian, Inc.
  
 This software contains proprietary and confidential information,
 including trade secrets, belonging to Gaussian, Inc.
  
 This software is provided under written license and may be
 used, copied, transmitted, or stored only in accord with that
 written license.
  
 The following legend is applicable only to US Government
 contracts under FAR:
  
                    RESTRICTED RIGHTS LEGEND
  
 Use, reproduction and disclosure by the US Government is
 subject to restrictions as set forth in subparagraphs (a)
 and (c) of the Commercial Computer Software - Restricted
 Rights clause in FAR 52.227-19.
  
 Gaussian, Inc.
 340 Quinnipiac St., Bldg. 40, Wallingford CT 06492
  
  
 ---------------------------------------------------------------
 Warning -- This program may not be used in any manner that
 competes with the business of Gaussian, Inc. or will provide
 assistance to any competitor of Gaussian, Inc.  The licensee
 of this program is prohibited from giving any competitor of
 Gaussian, Inc. access to this program.  By using this program,
 the user acknowledges that Gaussian, Inc. is engaged in the
 business of creating and licensing software in the field of
 computational chemistry and represents and warrants to the
 licensee that it is not a competitor of Gaussian, Inc. and that
 it will not use this program in any manner prohibited above.
 ---------------------------------------------------------------
  

 Cite this work as:
 Gaussian 16, Revision B.01,
 M. J. Frisch, G. W. Trucks, H. B. Schlegel, G. E. Scuseria, 
 M. A. Robb, J. R. Cheeseman, G. Scalmani, V. Barone, 
 G. A. Petersson, H. Nakatsuji, X. Li, M. Caricato, A. V. Marenich, 
 J. Bloino, B. G. Janesko, R. Gomperts, B. Mennucci, H. P. Hratchian, 
 J. V. Ortiz, A. F. Izmaylov, J. L. Sonnenberg, D. Williams-Young, 
 F. Ding, F. Lipparini, F. Egidi, J. Goings, B. Peng, A. Petrone, 
 T. Henderson, D. Ranasinghe, V. G. Zakrzewski, J. Gao, N. Rega, 
 G. Zheng, W. Liang, M. Hada, M. Ehara, K. Toyota, R. Fukuda, 
 J. Hasegawa, M. Ishida, T. Nakajima, Y. Honda, O. Kitao, H. Nakai, 
 T. Vreven, K. Throssell, J. A. Montgomery, Jr., J. E. Peralta, 
 F. Ogliaro, M. J. Bearpark, J. J. Heyd, E. N. Brothers, K. N. Kudin, 
 V. N. Staroverov, T. A. Keith, R. Kobayashi, J. Normand, 
 K. Raghavachari, A. P. Rendell, J. C. Burant, S. S. Iyengar, 
 J. Tomasi, M. Cossi, J. M. Millam, M. Klene, C. Adamo, R. Cammi, 
 J. W. Ochterski, R. L. Martin, K. Morokuma, O. Farkas, 
 J. B. Foresman, and D. J. Fox, Gaussian, Inc., Wallingford CT, 2016.
 
 ******************************************
 Gaussian 16:  ES64L-G16RevB.01 20-Dec-2017
                15-Apr-2020 
 ******************************************
 %nprocshared=16
 Will use up to   16 processors via shared memory.
 %mem=24GB
 %chk=dairc10-testr.chk
 ----------------------------------------------------------------------
 # M062X/ChkBasis NoSymm SCF=(NoVarAcc,XQC) Int=(Grid=Ultrafine,acc2e=1
 1) Geom=AllCheck Guess=Read IRC=(Reverse,CalcAll,Phase=(1,6),MaxPoints
 =300,StepSize=5)
 ----------------------------------------------------------------------
 1/10=4,18=10,22=2,26=4,29=7,38=1,39=5,42=300,44=3,71=1,101=1,102=6,172=1/1,23;
 2/12=2,15=1,29=1,40=1/2;
 3/5=7,6=2,11=2,14=-4,25=1,27=11,30=1,67=1,71=2,74=-55,75=-5,116=-2,140=1/1,2,3;
 4/5=1/1;
 5/5=2,8=3,13=1,38=6,87=11/2,8;
 8/6=4,10=90,11=11,87=11/1;
 11/6=1,8=1,9=11,15=111,16=1,31=1,87=11/1,2,10;
 10/6=1,13=1,31=1,87=11/2;
 6/7=2,8=2,9=2,10=2,18=1,28=1,87=11/1;
 7/10=1,25=1,30=1,87=11/1,2,3,16;
 1/10=4,18=10,22=2,26=4,39=5,42=300,44=3,71=1,101=1,102=6/23(2);
 2/15=1,29=1/2;
 99/5=20/99;
 2/15=1,29=1/2;
 3/5=7,6=1,11=2,14=-2,25=1,27=11,30=1,71=2,74=-55,75=-5,82=7,140=1/1,2,3;
 4/5=5,16=3,69=1/1;
 5/5=2,8=3,13=1,38=1,87=11/2,8;
 8/6=4,10=90,11=11,87=11/1;
 11/6=1,8=1,9=11,15=111,16=1,31=1,87=11/1,2,10;
 10/6=1,13=1,31=1,87=11/2;
 7/10=1,25=1,30=1,87=11/1,2,3,16;
 1/10=4,18=10,22=2,26=4,39=5,42=300,44=3,71=1,101=1,102=6/23(-8);
 2/15=1,29=1/2;
 6/7=2,8=2,9=2,10=2,18=1,19=2,28=1,87=11/1;
 99/5=20/99;
 Structure from the checkpoint file:  "dairc10-testr.chk"
 ----------------------------------------------------------------------
 Geometrical optimization for a DA reaction C2H2(NH2)2 + C4H4(NH2)2 -->
  C6H6(NH2)4
 ----------------------------------------------------------------------
 Charge =  0 Multiplicity = 1
 Redundant internal coordinates found in file.  (old form).
 C,0,-0.0392663473,1.2699321298,-0.8249388043
 C,0,-1.2609633235,0.6161216526,-0.7612243639
 C,0,-1.2885242829,-0.7960005947,-0.70310034
 C,0,-0.1231256583,-1.5220554817,-0.8394833225
 C,0,1.3145118288,-0.715021362,0.7923157758
 C,0,1.0718403035,0.6649166733,0.8550108629
 H,0,-0.0351226849,2.3533267778,-0.7500235665
 H,0,-0.1336526928,-2.5870931649,-0.6375776669
 H,0,0.794784044,-1.3835832124,1.4574597672
 H,0,0.3278557612,1.0001503855,1.56792329
 H,0,0.6722608197,-1.180262308,-1.4821669365
 H,0,0.769688374,0.8677148359,-1.4152311696
 N,0,2.2192788889,1.5014292211,0.6045010587
 H,0,2.0324047703,2.4572681565,0.3436011947
 H,0,2.9791547874,1.4072062901,1.2680880048
 N,0,2.5669675264,-1.1563251848,0.3317719245
 H,0,3.0879920009,-0.495621811,-0.2257922372
 H,0,2.6782108302,-2.1285129636,0.0989841629
 N,0,-2.4438697987,1.294921923,-0.3678129147
 H,0,-2.4312897334,2.297979341,-0.4668317318
 H,0,-3.3047015568,0.8642589061,-0.677951448
 N,0,-2.4943507479,-1.3860499308,-0.2560383851
 H,0,-2.560135246,-2.3893100422,-0.2964103909
 H,0,-2.9483056727,-0.9539313465,0.5377479263
 Recover connectivity data from disk.
 IRC-IRC-IRC-IRC-IRC-IRC-IRC-IRC-IRC-IRC-IRC-IRC-IRC-IRC-IRC-IRC-IRC-IRC
 ------------------------------------------------------------------------
 INPUT DATA FOR L123
 ------------------------------------------------------------------------
 GENERAL PARAMETERS:
 Rxn path following direction = Reverse
 Maximum points per path      = 300
 Step size                    =   0.050 bohr
 Integration scheme           = HPC                                 
    Redo corrector integration= Yes                                 
    DWI Weight Power          =  2
    DWI will use Hessian update vectors when possible.
    Max correction cycles     =  20
 Initial Hessian              = CalcFC
 Hessian evaluation           = Analytic at all predictor steps
                              = Update at all corrector steps
 Hessian updating method      = Bofill                              
 ------------------------------------------------------------------------
 IRC-IRC-IRC-IRC-IRC-IRC-IRC-IRC-IRC-IRC-IRC-IRC-IRC-IRC-IRC-IRC-IRC-IRC
                          Input orientation:                          
 ---------------------------------------------------------------------
 Center     Atomic      Atomic             Coordinates (Angstroms)
 Number     Number       Type             X           Y           Z
 ---------------------------------------------------------------------
      1          6           0       -0.039266    1.269932   -0.824939
      2          6           0       -1.260963    0.616122   -0.761224
      3          6           0       -1.288524   -0.796001   -0.703100
      4          6           0       -0.123126   -1.522055   -0.839483
      5          6           0        1.314512   -0.715021    0.792316
      6          6           0        1.071840    0.664917    0.855011
      7          1           0       -0.035123    2.353327   -0.750024
      8          1           0       -0.133653   -2.587093   -0.637578
      9          1           0        0.794784   -1.383583    1.457460
     10          1           0        0.327856    1.000150    1.567923
     11          1           0        0.672261   -1.180262   -1.482167
     12          1           0        0.769688    0.867715   -1.415231
     13          7           0        2.219279    1.501429    0.604501
     14          1           0        2.032405    2.457268    0.343601
     15          1           0        2.979155    1.407206    1.268088
     16          7           0        2.566968   -1.156325    0.331772
     17          1           0        3.087992   -0.495622   -0.225792
     18          1           0        2.678211   -2.128513    0.098984
     19          7           0       -2.443870    1.294922   -0.367813
     20          1           0       -2.431290    2.297979   -0.466832
     21          1           0       -3.304702    0.864259   -0.677951
     22          7           0       -2.494351   -1.386050   -0.256038
     23          1           0       -2.560135   -2.389310   -0.296410
     24          1           0       -2.948306   -0.953931    0.537748
 ---------------------------------------------------------------------
                    Distance matrix (angstroms):
                    1          2          3          4          5
     1  C    0.000000
     2  C    1.387109   0.000000
     3  C    2.417347   1.413587   0.000000
     4  C    2.793285   2.423345   1.379822   0.000000
     5  C    2.896251   3.289149   3.003102   2.319671   0.000000
     6  C    2.103053   2.838410   3.183286   3.013653   1.402515
     7  H    1.085990   2.126192   3.389909   3.877413   3.689862
     8  H    3.862727   3.398044   2.132143   1.084058   2.765218
     9  H    3.598073   3.625945   3.058341   2.477434   1.076805
    10  H    2.435847   2.845479   3.316081   3.515752   2.125293
    11  H    2.634705   2.735710   2.144593   1.078195   2.408777
    12  H    1.079181   2.148155   2.740679   2.615264   2.770406
    13  N    2.682893   3.842013   4.392344   4.088204   2.401360
    14  H    2.658397   3.931505   4.765282   4.677715   3.283312
    15  H    3.675659   4.766815   5.191608   4.758842   2.738840
    16  N    3.743950   4.357667   4.008193   2.956721   1.405523
    17  H    3.640866   4.520628   4.412703   3.426581   2.056675
    18  H    4.448342   4.877507   4.260741   3.015957   2.082869
    19  N    2.447796   1.419440   2.412301   3.680175   4.417149
    20  H    2.628098   2.070018   3.306728   4.478745   4.969372
    21  H    3.293819   2.060430   2.611908   3.980328   5.098328
    22  N    3.661329   2.405234   1.414935   2.445734   4.007089
    23  H    4.474838   3.307041   2.078708   2.643118   4.359066
    24  H    3.907044   2.645661   2.078346   3.193928   4.277090
                    6          7          8          9         10
     6  C    0.000000
     7  H    2.579192   0.000000
     8  H    3.775792   4.942682   0.000000
     9  H    2.153150   4.418849   2.588361   0.000000
    10  H    1.083577   2.708453   4.236218   2.431545   0.000000
    11  H    3.004455   3.677319   1.828114   2.949196   3.765085
    12  H    2.299222   1.815837   3.654650   3.649839   3.018603
    13  N    1.441917   2.764560   4.878018   3.328667   2.181042
    14  H    2.096842   2.341258   5.576746   4.186230   2.554925
    15  H    2.087936   3.748838   5.410689   3.549062   2.699071
    16  N    2.413733   4.500979   3.206257   2.111742   3.345456
    17  H    2.565122   4.259715   3.863006   2.980036   3.615674
    18  H    3.309872   5.307531   2.942685   2.438785   4.179771
    19  N    3.775238   2.658640   4.525474   4.582018   3.393586
    20  H    4.084860   2.413478   5.401132   5.259691   3.665716
    21  H    4.641533   3.593419   4.687111   5.139899   4.272926
    22  N    4.261292   4.502751   2.675999   3.708705   4.121364
    23  H    4.883167   5.392036   2.458319   3.917018   4.827491
    24  H    4.345446   4.591617   3.459896   3.878297   3.951320
                   11         12         13         14         15
    11  H    0.000000
    12  H    2.051386   0.000000
    13  N    3.733486   2.565585   0.000000
    14  H    4.291276   2.686005   1.008275   0.000000
    15  H    4.425003   3.517527   1.013231   1.689272   0.000000
    16  N    2.623139   3.221641   2.694240   3.652938   2.760123
    17  H    2.807662   2.940745   2.330721   3.187167   2.421627
    18  H    2.724528   3.861695   3.693595   4.637488   3.736132
    19  N    4.132625   3.406838   4.767913   4.679123   5.665508
    20  H    4.770859   3.631994   4.838392   4.539465   5.751203
    21  H    4.543463   4.140561   5.706578   5.662681   6.600660
    22  N    3.401936   4.132449   5.594316   5.968432   6.331232
    23  H    3.649137   4.790375   6.228346   6.707485   6.895283
    24  H    4.152082   4.577773   5.721642   6.039988   6.422083
                   16         17         18         19         20
    16  N    0.000000
    17  H    1.009393   0.000000
    18  H    1.005840   1.714565   0.000000
    19  N    5.621968   5.816160   6.178472   0.000000
    20  H    6.128015   6.190701   6.783876   1.008011   0.000000
    21  H    6.291168   6.551355   6.734653   1.011280   1.692033
    22  N    5.100513   5.652993   5.237622   2.683776   3.690594
    23  H    5.310560   5.957548   5.259717   3.686758   4.692156
    24  H    5.522828   6.101633   5.764533   2.476255   3.442588
                   21         22         23         24
    21  H    0.000000
    22  N    2.428697   0.000000
    23  H    3.359414   1.006225   0.000000
    24  H    2.216023   1.011384   1.704936   0.000000
 Symmetry turned off by external request.
 Stoichiometry    C6H14N4
 Framework group  C1[X(C6H14N4)]
 Deg. of freedom    66
 Full point group                 C1      NOp   1
 Rotational constants (GHZ):           1.9879788           0.9414771           0.7113333
 Basis read from chk: "dairc10-testr.chk" (5D, 7F)
 Pseudo-potential data read from chk file.
   182 basis functions,   360 primitive gaussians,   182 cartesian basis functions
    39 alpha electrons       39 beta electrons
       nuclear repulsion energy       560.1791488562 Hartrees.
 NAtoms=   24 NActive=   24 NUniq=   24 SFac= 1.00D+00 NAtFMM=   60 NAOKFM=F Big=F
 Integral buffers will be    131072 words long.
 Raffenetti 2 integral format.
 Two-electron integral symmetry is turned off.
 One-electron integrals computed using PRISM.
   1 Symmetry operations used in ECPInt.
 ECPInt:  NShTT=    7503 NPrTT=   29182 LenC2=    7211 LenP2D=   20241.
 LDataN:  DoStor=T MaxTD1= 2 Len=   12
 NBasis=   182 RedAO= T EigKep=  4.65D-05  NBF=   182
 NBsUse=   182 1.00D-06 EigRej= -1.00D+00 NBFU=   182
 Initial guess from the checkpoint file:  "dairc10-testr.chk"
 B after Tr=    -0.026355   -0.023869   -0.178791
         Rot=   -0.114331   -0.029832    0.992871    0.015665 Ang=-193.13 deg.
 Requested convergence on RMS density matrix=1.00D-08 within  32 cycles.
 Requested convergence on MAX density matrix=1.00D-06.
 Requested convergence on             energy=1.00D-06.
 No special actions if energy rises.
 SCF Done:  E(RM062X) =  -455.770424251     A.U. after    5 cycles
            NFock=  5  Conv=0.78D-08     -V/T= 2.0045
 QCSCF skips out because SCF is already converged.
 DoSCS=F DFT=T ScalE2(SS,OS)=  1.000000  1.000000
 Range of M.O.s used for correlation:     1   182
 NBasis=   182 NAE=    39 NBE=    39 NFC=     0 NFV=     0
 NROrb=    182 NOA=    39 NOB=    39 NVA=   143 NVB=   143

 **** Warning!!: The largest alpha MO coefficient is  0.28508617D+02

   1 Symmetry operations used in ECPInt.
 ECPInt:  NShTT=    7503 NPrTT=   29182 LenC2=    7211 LenP2D=   20241.
 LDataN:  DoStor=T MaxTD1= 3 Len=   28
 Symmetrizing basis deriv contribution to polar:
 IMax=3 JMax=2 DiffMx= 0.00D+00
 G2DrvN: will do    25 centers at a time, making    1 passes.
 Calling FoFCou, ICntrl=  3107 FMM=F I1Cent=   0 AccDes= 1.00D-11.
 End of G2Drv F.D. properties file   721 does not exist.
 End of G2Drv F.D. properties file   722 does not exist.
 End of G2Drv F.D. properties file   788 does not exist.
          IDoAtm=111111111111111111111111
          Differentiating once with respect to nuclear coordinates.
 Keep R1 ints in memory in canonical form, NReq=154823143.
          There are    75 degrees of freedom in the 1st order CPHF.  IDoFFX=6 NUNeed=     0.
     69 vectors produced by pass  0 Test12= 7.44D-15 1.33D-09 XBig12= 1.14D-01 1.41D-01.
 AX will form    69 AO Fock derivatives at one time.
     69 vectors produced by pass  1 Test12= 7.44D-15 1.33D-09 XBig12= 1.73D-02 3.37D-02.
     69 vectors produced by pass  2 Test12= 7.44D-15 1.33D-09 XBig12= 2.11D-04 2.13D-03.
     69 vectors produced by pass  3 Test12= 7.44D-15 1.33D-09 XBig12= 1.23D-06 1.57D-04.
     69 vectors produced by pass  4 Test12= 7.44D-15 1.33D-09 XBig12= 5.45D-09 1.32D-05.
     69 vectors produced by pass  5 Test12= 7.44D-15 1.33D-09 XBig12= 1.97D-11 5.86D-07.
     34 vectors produced by pass  6 Test12= 7.44D-15 1.33D-09 XBig12= 5.55D-14 2.12D-08.
 InvSVY:  IOpt=1 It=  1 EMax= 3.33D-16
 Solved reduced A of dimension   448 with    75 vectors.
 End of Minotr F.D. properties file   721 does not exist.
 End of Minotr F.D. properties file   722 does not exist.
 End of Minotr F.D. properties file   788 does not exist.

 **********************************************************************

            Population analysis using the SCF Density.

 **********************************************************************

 Alpha  occ. eigenvalues --  -14.73914 -14.73829 -14.73564 -14.73236 -10.56539
 Alpha  occ. eigenvalues --  -10.56339 -10.55969 -10.55836 -10.52811 -10.51996
 Alpha  occ. eigenvalues --   -1.02741  -1.01454  -0.97900  -0.96864  -0.86408
 Alpha  occ. eigenvalues --   -0.79466  -0.78800  -0.71055  -0.65012  -0.60655
 Alpha  occ. eigenvalues --   -0.60117  -0.59987  -0.56483  -0.55317  -0.54981
 Alpha  occ. eigenvalues --   -0.53766  -0.49815  -0.48052  -0.46937  -0.45740
 Alpha  occ. eigenvalues --   -0.44547  -0.42918  -0.42392  -0.37730  -0.35115
 Alpha  occ. eigenvalues --   -0.32508  -0.28817  -0.24260  -0.19332
 Alpha virt. eigenvalues --    0.03297   0.06090   0.07268   0.07717   0.08355
 Alpha virt. eigenvalues --    0.09889   0.10902   0.11896   0.12814   0.13891
 Alpha virt. eigenvalues --    0.14327   0.15204   0.17156   0.18163   0.18871
 Alpha virt. eigenvalues --    0.19603   0.20898   0.22977   0.24138   0.25008
 Alpha virt. eigenvalues --    0.26469   0.27798   0.28556   0.29460   0.30073
 Alpha virt. eigenvalues --    0.30891   0.31268   0.32811   0.33851   0.35511
 Alpha virt. eigenvalues --    0.36219   0.37573   0.38743   0.39761   0.39936
 Alpha virt. eigenvalues --    0.40822   0.42695   0.43311   0.44387   0.45240
 Alpha virt. eigenvalues --    0.45523   0.45758   0.46939   0.47555   0.47830
 Alpha virt. eigenvalues --    0.49666   0.50356   0.51277   0.51659   0.52898
 Alpha virt. eigenvalues --    0.53654   0.53801   0.54276   0.54462   0.55217
 Alpha virt. eigenvalues --    0.57034   0.57294   0.58473   0.58593   0.59603
 Alpha virt. eigenvalues --    0.60794   0.62029   0.63103   0.63685   0.64261
 Alpha virt. eigenvalues --    0.65118   0.65876   0.68408   0.69226   0.71288
 Alpha virt. eigenvalues --    0.72429   0.73732   0.76281   0.77787   0.80386
 Alpha virt. eigenvalues --    0.81066   0.83947   0.89253   0.92525   1.44456
 Alpha virt. eigenvalues --    1.46197   1.51622   1.53735   1.55180   1.56681
 Alpha virt. eigenvalues --    1.58401   1.58833   1.59961   1.61466   1.61965
 Alpha virt. eigenvalues --    1.62211   1.65598   1.67609   1.70567   1.71896
 Alpha virt. eigenvalues --    1.75238   1.81520   1.82266   1.87207   1.91000
 Alpha virt. eigenvalues --    1.99248   2.04605   2.05969   2.07152   2.08851
 Alpha virt. eigenvalues --    2.09839   2.12662   2.13586   2.14171   2.15707
 Alpha virt. eigenvalues --    2.16541   2.21072   2.22837   2.25956   2.28132
 Alpha virt. eigenvalues --    2.37988   2.45625   2.46715   2.53000   2.53374
 Alpha virt. eigenvalues --    2.54944   2.56143   2.58920   2.61029   2.63507
 Alpha virt. eigenvalues --    2.69242   2.73242   2.79582   2.83307   2.88439
 Alpha virt. eigenvalues --    2.91573   2.93990   2.99060  21.50229  21.66795
 Alpha virt. eigenvalues --   21.84106  22.07828  22.14749  22.29071  31.81284
 Alpha virt. eigenvalues --   31.84797  31.90533  31.93061
          Condensed to atoms (all electrons):
               1          2          3          4          5          6
     1  C    6.455445   0.008201  -0.075289  -0.249995   0.003228  -0.023576
     2  C    0.008201   6.249383  -0.193720  -0.188499  -0.162511  -0.010573
     3  C   -0.075289  -0.193720   5.954938   0.281955  -0.014933  -0.132401
     4  C   -0.249995  -0.188499   0.281955   6.206407   0.117477   0.016159
     5  C    0.003228  -0.162511  -0.014933   0.117477   5.953203   0.028399
     6  C   -0.023576  -0.010573  -0.132401   0.016159   0.028399   5.980363
     7  H    0.285196  -0.015852   0.043180   0.007845   0.012368  -0.031001
     8  H   -0.001002   0.046091  -0.008029   0.267190  -0.017812   0.010279
     9  H    0.007828  -0.007267   0.009792  -0.036282   0.367497  -0.022126
    10  H   -0.081278   0.039420  -0.023492  -0.001607  -0.027657   0.387825
    11  H    0.031399  -0.041215   0.036212   0.303775  -0.067993  -0.023294
    12  H    0.363885   0.042843  -0.016858  -0.024998  -0.021336  -0.108747
    13  N   -0.093543   0.006117   0.004973   0.019078  -0.026499   0.189663
    14  H   -0.002001   0.001565   0.000149  -0.000025   0.007382  -0.050649
    15  H    0.005313  -0.002533  -0.000615   0.000264  -0.023716  -0.009934
    16  N   -0.011690   0.017730   0.029929  -0.148497   0.099187  -0.002997
    17  H   -0.001997   0.001023   0.000587  -0.004537  -0.053236  -0.000033
    18  H   -0.000254   0.000954   0.000765   0.002066  -0.084285   0.017837
    19  N   -0.030669   0.180299  -0.040640   0.001211   0.002176  -0.009356
    20  H   -0.031343  -0.047624   0.017922   0.000766  -0.000265  -0.001514
    21  H    0.011483   0.010557  -0.059599  -0.002745  -0.000874  -0.000043
    22  N   -0.002596  -0.005969   0.106866  -0.046053   0.012241  -0.006675
    23  H    0.001252   0.017512  -0.075439  -0.001058   0.000010  -0.000569
    24  H   -0.003189  -0.036919  -0.033868   0.012210   0.004615  -0.000505
               7          8          9         10         11         12
     1  C    0.285196  -0.001002   0.007828  -0.081278   0.031399   0.363885
     2  C   -0.015852   0.046091  -0.007267   0.039420  -0.041215   0.042843
     3  C    0.043180  -0.008029   0.009792  -0.023492   0.036212  -0.016858
     4  C    0.007845   0.267190  -0.036282  -0.001607   0.303775  -0.024998
     5  C    0.012368  -0.017812   0.367497  -0.027657  -0.067993  -0.021336
     6  C   -0.031001   0.010279  -0.022126   0.387825  -0.023294  -0.108747
     7  H    0.568635  -0.000256   0.000000  -0.004946   0.000540  -0.028809
     8  H   -0.000256   0.549900  -0.003260   0.000344  -0.022014   0.001061
     9  H    0.000000  -0.003260   0.514443  -0.008125   0.008975   0.000436
    10  H   -0.004946   0.000344  -0.008125   0.565672  -0.000220   0.010192
    11  H    0.000540  -0.022014   0.008975  -0.000220   0.540046  -0.001936
    12  H   -0.028809   0.001061   0.000436   0.010192  -0.001936   0.521593
    13  N    0.007960  -0.000304   0.003122  -0.065645  -0.001356   0.022909
    14  H    0.000682   0.000005  -0.000301  -0.000856   0.000101   0.002007
    15  H   -0.000226   0.000010  -0.000907   0.002264  -0.000387  -0.002467
    16  N   -0.000203   0.004575  -0.030378   0.008931   0.044200   0.014168
    17  H   -0.000050  -0.000247   0.006559   0.000781   0.005040   0.001984
    18  H    0.000006   0.001251  -0.008398  -0.000056  -0.000822   0.000441
    19  N    0.000778  -0.000383  -0.000283   0.007034  -0.000081   0.000951
    20  H    0.002376   0.000040  -0.000022   0.000352  -0.000131   0.000731
    21  H   -0.000343  -0.000070  -0.000008  -0.000219   0.000002  -0.000037
    22  N   -0.000412   0.002384   0.004573   0.001367   0.008837   0.000520
    23  H    0.000039   0.000926   0.000025   0.000014   0.000692  -0.000050
    24  H   -0.000024   0.001475  -0.000252   0.000625  -0.000306  -0.000137
              13         14         15         16         17         18
     1  C   -0.093543  -0.002001   0.005313  -0.011690  -0.001997  -0.000254
     2  C    0.006117   0.001565  -0.002533   0.017730   0.001023   0.000954
     3  C    0.004973   0.000149  -0.000615   0.029929   0.000587   0.000765
     4  C    0.019078  -0.000025   0.000264  -0.148497  -0.004537   0.002066
     5  C   -0.026499   0.007382  -0.023716   0.099187  -0.053236  -0.084285
     6  C    0.189663  -0.050649  -0.009934  -0.002997  -0.000033   0.017837
     7  H    0.007960   0.000682  -0.000226  -0.000203  -0.000050   0.000006
     8  H   -0.000304   0.000005   0.000010   0.004575  -0.000247   0.001251
     9  H    0.003122  -0.000301  -0.000907  -0.030378   0.006559  -0.008398
    10  H   -0.065645  -0.000856   0.002264   0.008931   0.000781  -0.000056
    11  H   -0.001356   0.000101  -0.000387   0.044200   0.005040  -0.000822
    12  H    0.022909   0.002007  -0.002467   0.014168   0.001984   0.000441
    13  N    6.915425   0.340110   0.315244   0.013928   0.011225   0.001513
    14  H    0.340110   0.433924  -0.039688   0.000665  -0.000262   0.000030
    15  H    0.315244  -0.039688   0.435785   0.005664  -0.003999  -0.000759
    16  N    0.013928   0.000665   0.005664   6.850754   0.347556   0.357554
    17  H    0.011225  -0.000262  -0.003999   0.347556   0.383112  -0.028552
    18  H    0.001513   0.000030  -0.000759   0.357554  -0.028552   0.438469
    19  N    0.000546   0.000136   0.000005  -0.000097   0.000001  -0.000004
    20  H   -0.000082   0.000030  -0.000005   0.000002   0.000001   0.000000
    21  H   -0.000017   0.000014  -0.000003   0.000012   0.000001   0.000001
    22  N    0.000007  -0.000015   0.000010   0.000331  -0.000004  -0.000036
    23  H    0.000005   0.000000  -0.000000   0.000055   0.000001   0.000011
    24  H    0.000003  -0.000008   0.000005  -0.000031  -0.000003  -0.000007
              19         20         21         22         23         24
     1  C   -0.030669  -0.031343   0.011483  -0.002596   0.001252  -0.003189
     2  C    0.180299  -0.047624   0.010557  -0.005969   0.017512  -0.036919
     3  C   -0.040640   0.017922  -0.059599   0.106866  -0.075439  -0.033868
     4  C    0.001211   0.000766  -0.002745  -0.046053  -0.001058   0.012210
     5  C    0.002176  -0.000265  -0.000874   0.012241   0.000010   0.004615
     6  C   -0.009356  -0.001514  -0.000043  -0.006675  -0.000569  -0.000505
     7  H    0.000778   0.002376  -0.000343  -0.000412   0.000039  -0.000024
     8  H   -0.000383   0.000040  -0.000070   0.002384   0.000926   0.001475
     9  H   -0.000283  -0.000022  -0.000008   0.004573   0.000025  -0.000252
    10  H    0.007034   0.000352  -0.000219   0.001367   0.000014   0.000625
    11  H   -0.000081  -0.000131   0.000002   0.008837   0.000692  -0.000306
    12  H    0.000951   0.000731  -0.000037   0.000520  -0.000050  -0.000137
    13  N    0.000546  -0.000082  -0.000017   0.000007   0.000005   0.000003
    14  H    0.000136   0.000030   0.000014  -0.000015   0.000000  -0.000008
    15  H    0.000005  -0.000005  -0.000003   0.000010  -0.000000   0.000005
    16  N   -0.000097   0.000002   0.000012   0.000331   0.000055  -0.000031
    17  H    0.000001   0.000001   0.000001  -0.000004   0.000001  -0.000003
    18  H   -0.000004   0.000000   0.000001  -0.000036   0.000011  -0.000007
    19  N    6.742767   0.354816   0.330829   0.046887  -0.001204   0.019492
    20  H    0.354816   0.440779  -0.029338  -0.001222  -0.000096  -0.000428
    21  H    0.330829  -0.029338   0.409972   0.018075  -0.000104  -0.008855
    22  N    0.046887  -0.001222   0.018075   6.793528   0.358445   0.329819
    23  H   -0.001204  -0.000096  -0.000104   0.358445   0.419284  -0.029720
    24  H    0.019492  -0.000428  -0.008855   0.329819  -0.029720   0.428791
 Mulliken charges:
               1
     1  C   -0.564806
     2  C    0.090985
     3  C    0.187616
     4  C   -0.532104
     5  C   -0.106667
     6  C   -0.196531
     7  H    0.152517
     8  H    0.167845
     9  H    0.194358
    10  H    0.189281
    11  H    0.179937
    12  H    0.221652
    13  N   -0.664382
    14  H    0.307006
    15  H    0.320676
    16  N   -0.601350
    17  H    0.335052
    18  H    0.302276
    19  N   -0.605212
    20  H    0.294257
    21  H    0.321312
    22  N   -0.620908
    23  H    0.309971
    24  H    0.317219
 Sum of Mulliken charges =  -0.00000
 Mulliken charges with hydrogens summed into heavy atoms:
               1
     1  C   -0.190638
     2  C    0.090985
     3  C    0.187616
     4  C   -0.184322
     5  C    0.087691
     6  C   -0.007251
    13  N   -0.036700
    16  N    0.035978
    19  N    0.010357
    22  N    0.006282
 APT charges:
               1
     1  C   -0.715473
     2  C   -0.177931
     3  C    0.142520
     4  C   -0.640083
     5  C   -0.154499
     6  C   -0.404207
     7  H    0.455743
     8  H    0.465971
     9  H    0.413906
    10  H    0.336639
    11  H    0.280040
    12  H    0.314994
    13  N   -1.504611
    14  H    0.607514
    15  H    0.762055
    16  N   -1.238525
    17  H    0.539732
    18  H    0.668265
    19  N   -1.617078
    20  H    0.694498
    21  H    0.755237
    22  N   -1.215198
    23  H    0.719784
    24  H    0.510709
 Sum of APT charges =  -0.00000
 APT charges with hydrogens summed into heavy atoms:
               1
     1  C    0.055263
     2  C   -0.177931
     3  C    0.142520
     4  C    0.105929
     5  C    0.259406
     6  C   -0.067568
    13  N   -0.135042
    16  N   -0.030528
    19  N   -0.167343
    22  N    0.015295
 Electronic spatial extent (au):  <R**2>=           1686.3212
 Charge=             -0.0000 electrons
 Dipole moment (field-independent basis, Debye):
    X=             -0.0940    Y=              0.2252    Z=              0.7104  Tot=              0.7512
 Quadrupole moment (field-independent basis, Debye-Ang):
   XX=            -59.1071   YY=            -51.2243   ZZ=            -68.0067
   XY=              0.2115   XZ=             -2.9332   YZ=             -0.6506
 Traceless Quadrupole moment (field-independent basis, Debye-Ang):
   XX=              0.3389   YY=              8.2218   ZZ=             -8.5607
   XY=              0.2115   XZ=             -2.9332   YZ=             -0.6506
 Octapole moment (field-independent basis, Debye-Ang**2):
  XXX=             -7.5192  YYY=              4.7000  ZZZ=             28.0511  XYY=             -0.9436
  XXY=              6.3860  XXZ=              6.5444  XZZ=              5.4344  YZZ=              3.0084
  YYZ=              7.5244  XYZ=             14.9576
 Hexadecapole moment (field-independent basis, Debye-Ang**3):
 XXXX=          -1211.5671 YYYY=           -539.1664 ZZZZ=           -293.4531 XXXY=            -21.0750
 XXXZ=           -157.7759 YYYX=            -13.3168 YYYZ=            -18.4043 ZZZX=           -152.3665
 ZZZY=            -14.6039 XXYY=           -260.8447 XXZZ=           -273.7198 YYZZ=           -168.6429
 XXYZ=             -0.8714 YYXZ=            -38.1217 ZZXY=              0.7132
 N-N= 5.601791488562D+02 E-N=-2.181506162283D+03  KE= 4.537147152991D+02
  Exact polarizability:   0.000   0.000   0.000   0.000   0.000   0.000
 Approx polarizability: 172.221  -6.515 149.976  21.667  -0.525 107.536
   1 Symmetry operations used in ECPInt.
 ECPInt:  NShTT=    7503 NPrTT=   29182 LenC2=    7211 LenP2D=   20241.
 LDataN:  DoStor=T MaxTD1= 4 Len=   56
 Calling FoFJK, ICntrl=    100127 FMM=F ISym2X=0 I1Cent= 0 IOpClX= 0 NMat=1 NMatS=1 NMatT=0.
 -------------------------------------------------------------------
 Center     Atomic                   Forces (Hartrees/Bohr)
 Number     Number              X              Y              Z
 -------------------------------------------------------------------
      1        6          -0.000083508   -0.000036079   -0.000077505
      2        6           0.000040316   -0.000006005    0.000033440
      3        6          -0.000005410    0.000010164   -0.000003518
      4        6           0.000039945    0.000014067    0.000034150
      5        6          -0.000025666    0.000008357   -0.000005287
      6        6           0.000049123    0.000040523    0.000015505
      7        1          -0.000003975    0.000004943    0.000006126
      8        1           0.000000579    0.000004950   -0.000009079
      9        1           0.000002758   -0.000014643   -0.000002178
     10        1           0.000002604   -0.000006140    0.000009676
     11        1           0.000000425   -0.000000264    0.000005722
     12        1          -0.000004858    0.000002136   -0.000009780
     13        7          -0.000010290   -0.000004829   -0.000002824
     14        1          -0.000013627   -0.000009878    0.000000549
     15        1           0.000009429    0.000003532    0.000004681
     16        7          -0.000020580   -0.000008135   -0.000002852
     17        1           0.000012792   -0.000003789    0.000000044
     18        1           0.000024324   -0.000000747    0.000002286
     19        7          -0.000009350   -0.000006356   -0.000021133
     20        1           0.000000125   -0.000003380    0.000021301
     21        1          -0.000000848    0.000006872   -0.000002213
     22        7           0.000008544   -0.000005812    0.000021908
     23        1           0.000010879   -0.000002247   -0.000007823
     24        1          -0.000023730    0.000012762   -0.000011195
 -------------------------------------------------------------------
 Cartesian Forces:  Max     0.000083508 RMS     0.000020568
 IRC-IRC-IRC-IRC-IRC-IRC-IRC-IRC-IRC-IRC-IRC-IRC-IRC-IRC-IRC-IRC-IRC-IRC
          ******** Start new reaction path calculation ********
 Setting the phase of the TS vector:      1      6      0      0
 Supplied step size of   0.0500 bohr.
    Integration on MW PES will use step size of   0.1313 sqrt(amu)*bohr.
 Point Number:   0          Path Number:   1
 Calculating another point on the path.
 IRC-IRC-IRC-IRC-IRC-IRC-IRC-IRC-IRC-IRC-IRC-IRC-IRC-IRC-IRC-IRC-IRC-IRC
                          Input orientation:                          
 ---------------------------------------------------------------------
 Center     Atomic      Atomic             Coordinates (Angstroms)
 Number     Number       Type             X           Y           Z
 ---------------------------------------------------------------------
      1          6           0       -0.004958    1.281985   -0.717725
      2          6           0       -1.232709    0.628605   -0.661185
      3          6           0       -1.260222   -0.779240   -0.603679
      4          6           0       -0.089273   -1.505018   -0.734822
      5          6           0        1.338370   -0.703379    0.884954
      6          6           0        1.094918    0.682991    0.945270
      7          1           0       -0.003985    2.365952   -0.646194
      8          1           0       -0.102611   -2.570805   -0.535973
      9          1           0        0.827655   -1.365778    1.563712
     10          1           0        0.358882    1.014222    1.669176
     11          1           0        0.699309   -1.167975   -1.389136
     12          1           0        0.795861    0.885284   -1.323999
     13          7           0        2.248138    1.515848    0.703690
     14          1           0        2.064368    2.472822    0.444513
     15          1           0        3.004946    1.418090    1.370222
     16          7           0        2.595496   -1.140956    0.431323
     17          1           0        3.115059   -0.480262   -0.127700
     18          1           0        2.709162   -2.113241    0.199576
     19          7           0       -2.414757    1.310181   -0.268898
     20          1           0       -2.401620    2.313005   -0.370271
     21          1           0       -3.275896    0.879349   -0.578214
     22          7           0       -2.465483   -1.371544   -0.157255
     23          1           0       -2.530848   -2.374754   -0.198353
     24          1           0       -2.919507   -0.940250    0.637073
 ---------------------------------------------------------------------
                    Distance matrix (angstroms):
                    1          2          3          4          5
     1  C    0.000000
     2  C    1.391932   0.000000
     3  C    2.416059   1.409288   0.000000
     4  C    2.788330   2.421821   1.383861   0.000000
     5  C    2.883536   3.282557   2.995741   2.303143   0.000000
     6  C    2.081843   2.828693   3.175538   3.002066   1.408875
     7  H    1.086325   2.127995   3.387059   3.872924   3.683358
     8  H    3.858310   3.395442   2.134092   1.084260   2.753677
     9  H    3.592888   3.629440   3.066078   2.478589   1.077179
    10  H    2.429274   2.848236   3.317208   3.510929   2.127100
    11  H    2.636112   2.736843   2.146583   1.078697   2.407433
    12  H    1.079932   2.149490   2.741711   2.616130   2.774462
    13  N    2.674239   3.842705   4.391495   4.081475   2.405307
    14  H    2.655372   3.936296   4.767338   4.674635   3.287752
    15  H    3.665730   4.765252   5.188083   4.748680   2.741093
    16  N    3.735414   4.356613   4.008569   2.949648   1.406279
    17  H    3.631549   4.518549   4.411238   3.418547   2.057151
    18  H    4.442460   4.878215   4.263893   3.012354   2.082433
    19  N    2.451402   1.419743   2.410541   3.681074   4.412682
    20  H    2.632055   2.070794   3.304429   4.478520   4.966054
    21  H    3.298577   2.060186   2.610461   3.983000   5.092871
    22  N    3.661902   2.402972   1.415194   2.449035   4.000243
    23  H    4.474551   3.304474   2.079531   2.646796   4.351770
    24  H    3.907480   2.644252   2.078128   3.195509   4.271659
                    6          7          8          9         10
     6  C    0.000000
     7  H    2.563728   0.000000
     8  H    3.770324   4.938972   0.000000
     9  H    2.156700   4.416007   2.593484   0.000000
    10  H    1.084206   2.705511   4.234155   2.428018   0.000000
    11  H    3.005334   3.679025   1.827264   2.962247   3.772419
    12  H    2.297812   1.814263   3.656882   3.661580   3.027652
    13  N    1.442888   2.759877   4.874783   3.325834   2.180155
    14  H    2.096207   2.340758   5.576318   4.185322   2.556559
    15  H    2.090254   3.744068   5.403866   3.539485   2.693351
    16  N    2.417159   4.496304   3.203110   2.111424   3.343578
    17  H    2.566202   4.254199   3.858815   2.979467   3.613690
    18  H    3.313723   5.304684   2.942188   2.441237   4.179063
    19  N    3.766349   2.658726   4.525417   4.586115   3.396586
    20  H    4.075950   2.414041   5.400416   5.263264   3.669681
    21  H    4.632879   3.594442   4.687758   5.144664   4.275577
    22  N    4.255952   4.501879   2.676717   3.715712   4.123684
    23  H    4.878920   5.390723   2.459422   3.924595   4.829427
    24  H    4.341141   4.591080   3.459717   3.883420   3.953863
                   11         12         13         14         15
    11  H    0.000000
    12  H    2.056560   0.000000
    13  N    3.739210   2.572595   0.000000
    14  H    4.298960   2.693886   1.008338   0.000000
    15  H    4.429193   3.524595   1.013203   1.689404   0.000000
    16  N    2.628750   3.228853   2.693222   3.652624   2.756428
    17  H    2.810697   2.945255   2.329639   3.186234   2.420668
    18  H    2.730759   3.869517   3.692826   4.637643   3.732050
    19  N    4.134440   3.406148   4.767684   4.682227   5.663174
    20  H    4.771904   3.629308   4.838295   4.542517   5.749883
    21  H    4.544379   4.139497   5.706431   5.665999   6.598153
    22  N    3.402188   4.134118   5.594326   5.971669   6.327783
    23  H    3.648040   4.791861   6.228095   6.710312   6.891380
    24  H    4.153698   4.580648   5.722010   6.043604   6.418599
                   16         17         18         19         20
    16  N    0.000000
    17  H    1.009439   0.000000
    18  H    1.005965   1.714200   0.000000
    19  N    5.621478   5.814162   6.180116   0.000000
    20  H    6.127281   6.188290   6.785019   1.008020   0.000000
    21  H    6.290790   6.549489   6.736577   1.011362   1.692031
    22  N    5.100305   5.651345   5.239694   2.684528   3.691254
    23  H    5.310194   5.955700   5.261601   3.687438   4.692691
    24  H    5.522488   6.100200   5.766214   2.477902   3.444796
                   21         22         23         24
    21  H    0.000000
    22  N    2.429093   0.000000
    23  H    3.359848   1.006177   0.000000
    24  H    2.216952   1.011489   1.704932   0.000000
 Symmetry turned off by external request.
 Stoichiometry    C6H14N4
 Framework group  C1[X(C6H14N4)]
 Deg. of freedom    66
 Full point group                 C1      NOp   1
 Rotational constants (GHZ):           1.9917833           0.9429897           0.7120236
 Basis read from rwf:  (5D, 7F)
 Pseudo-potential data read from rwf file.
   182 basis functions,   360 primitive gaussians,   182 cartesian basis functions
    39 alpha electrons       39 beta electrons
       nuclear repulsion energy       560.3978270027 Hartrees.
 NAtoms=   24 NActive=   24 NUniq=   24 SFac= 1.00D+00 NAtFMM=   60 NAOKFM=F Big=F
 Integral buffers will be    131072 words long.
 Raffenetti 2 integral format.
 Two-electron integral symmetry is turned off.
 One-electron integrals computed using PRISM.
   1 Symmetry operations used in ECPInt.
 ECPInt:  NShTT=    7503 NPrTT=   29182 LenC2=    7211 LenP2D=   20246.
 LDataN:  DoStor=T MaxTD1= 2 Len=   12
 NBasis=   182 RedAO= T EigKep=  4.53D-05  NBF=   182
 NBsUse=   182 1.00D-06 EigRej= -1.00D+00 NBFU=   182
 Initial guess from the checkpoint file:  "dairc10-testr.chk"
 B after Tr=     0.054489    0.027890    0.187352
         Rot=    1.000000   -0.000004    0.000004   -0.000001 Ang=  -0.00 deg.
 ExpMin= 9.52D-02 ExpMax= 1.97D+04 ExpMxC= 6.73D+02 IAcc=3 IRadAn=         5 AccDes= 0.00D+00
 Harris functional with IExCor= 1009 and IRadAn=       5 diagonalized for initial guess.
 HarFok:  IExCor= 1009 AccDes= 0.00D+00 IRadAn=         5 IDoV= 1 UseB2=F ITyADJ=14
 ICtDFT=  3500011 ScaDFX=  1.000000  1.000000  1.000000  1.000000
 FoFCou: FMM=F IPFlag=           0 FMFlag=      100000 FMFlg1=           0
         NFxFlg=           0 DoJE=T BraDBF=F KetDBF=T FulRan=T
         wScrn=  0.000000 ICntrl=       500 IOpCl=  0 I1Cent=   200000004 NGrid=           0
         NMat0=    1 NMatS0=      1 NMatT0=    0 NMatD0=    1 NMtDS0=    0 NMtDT0=    0
 Symmetry not used in FoFCou.
 Requested convergence on RMS density matrix=1.00D-08 within  32 cycles.
 Requested convergence on MAX density matrix=1.00D-06.
 Requested convergence on             energy=1.00D-06.
 No special actions if energy rises.
 SCF Done:  E(RM062X) =  -455.770556757     A.U. after   12 cycles
            NFock= 12  Conv=0.50D-08     -V/T= 2.0046
 QCSCF skips out because SCF is already converged.
 DoSCS=F DFT=T ScalE2(SS,OS)=  1.000000  1.000000
 Range of M.O.s used for correlation:     1   182
 NBasis=   182 NAE=    39 NBE=    39 NFC=     0 NFV=     0
 NROrb=    182 NOA=    39 NOB=    39 NVA=   143 NVB=   143

 **** Warning!!: The largest alpha MO coefficient is  0.29236617D+02

   1 Symmetry operations used in ECPInt.
 ECPInt:  NShTT=    7503 NPrTT=   29182 LenC2=    7211 LenP2D=   20246.
 LDataN:  DoStor=T MaxTD1= 3 Len=   28
 Symmetrizing basis deriv contribution to polar:
 IMax=3 JMax=2 DiffMx= 0.00D+00
 G2DrvN: will do    25 centers at a time, making    1 passes.
 Calling FoFCou, ICntrl=  3107 FMM=F I1Cent=   0 AccDes= 1.00D-11.
 End of G2Drv F.D. properties file   721 does not exist.
 End of G2Drv F.D. properties file   722 does not exist.
 End of G2Drv F.D. properties file   788 does not exist.
          IDoAtm=111111111111111111111111
          Differentiating once with respect to nuclear coordinates.
 Keep R1 ints in memory in canonical form, NReq=154823143.
          There are    75 degrees of freedom in the 1st order CPHF.  IDoFFX=6 NUNeed=     0.
     69 vectors produced by pass  0 Test12= 7.44D-15 1.33D-09 XBig12= 1.14D-01 1.39D-01.
 AX will form    69 AO Fock derivatives at one time.
     69 vectors produced by pass  1 Test12= 7.44D-15 1.33D-09 XBig12= 1.76D-02 3.48D-02.
     69 vectors produced by pass  2 Test12= 7.44D-15 1.33D-09 XBig12= 2.15D-04 2.24D-03.
     69 vectors produced by pass  3 Test12= 7.44D-15 1.33D-09 XBig12= 1.25D-06 1.62D-04.
     69 vectors produced by pass  4 Test12= 7.44D-15 1.33D-09 XBig12= 5.56D-09 1.36D-05.
     69 vectors produced by pass  5 Test12= 7.44D-15 1.33D-09 XBig12= 2.01D-11 6.14D-07.
     33 vectors produced by pass  6 Test12= 7.44D-15 1.33D-09 XBig12= 5.72D-14 2.14D-08.
 InvSVY:  IOpt=1 It=  1 EMax= 3.33D-16
 Solved reduced A of dimension   447 with    75 vectors.
 End of Minotr F.D. properties file   721 does not exist.
 End of Minotr F.D. properties file   722 does not exist.
 End of Minotr F.D. properties file   788 does not exist.
   1 Symmetry operations used in ECPInt.
 ECPInt:  NShTT=    7503 NPrTT=   29182 LenC2=    7211 LenP2D=   20246.
 LDataN:  DoStor=T MaxTD1= 4 Len=   56
 Calling FoFJK, ICntrl=    100127 FMM=F ISym2X=0 I1Cent= 0 IOpClX= 0 NMat=1 NMatS=1 NMatT=0.
 -------------------------------------------------------------------
 Center     Atomic                   Forces (Hartrees/Bohr)
 Number     Number              X              Y              Z
 -------------------------------------------------------------------
      1        6           0.002039128   -0.000984730    0.002731815
      2        6          -0.000216856   -0.000831714    0.000385402
      3        6          -0.000237562    0.000737507    0.000128300
      4        6           0.001947610    0.000791082    0.001943319
      5        6          -0.001792843   -0.001296705   -0.002235604
      6        6          -0.002018509    0.001362104   -0.003063753
      7        1           0.000057868   -0.000060045    0.000136272
      8        1           0.000062769    0.000053389    0.000058134
      9        1           0.000162449    0.000141386    0.000153003
     10        1           0.000101646   -0.000048014    0.000032145
     11        1          -0.000100576   -0.000101101   -0.000143899
     12        1          -0.000159136    0.000130787   -0.000183514
     13        7           0.000042667   -0.000150046    0.000043426
     14        1           0.000074705    0.000005925    0.000057376
     15        1          -0.000093207   -0.000102845    0.000080921
     16        7          -0.000116856    0.000245940    0.000172537
     17        1          -0.000036278    0.000010067   -0.000031409
     18        1           0.000084526    0.000018420    0.000049925
     19        7           0.000132394    0.000195870   -0.000114680
     20        1           0.000025165    0.000004216   -0.000051487
     21        1          -0.000001628    0.000016833    0.000015368
     22        7           0.000040014   -0.000111113   -0.000118425
     23        1           0.000023377   -0.000007844   -0.000038727
     24        1          -0.000020867   -0.000019368   -0.000006446
 -------------------------------------------------------------------
 Cartesian Forces:  Max     0.003063753 RMS     0.000816645
 IRC-IRC-IRC-IRC-IRC-IRC-IRC-IRC-IRC-IRC-IRC-IRC-IRC-IRC-IRC-IRC-IRC-IRC
 Pt  1 Step number   1 out of a maximum of  20
 Modified Bulirsch-Stoer Extrapolation Cycles:
    EPS =    0.000010000000000
      PEZero:  N= 2 I= 1 D=  3.42D-04 Err=  4.48D-04
      PEZero:  N= 3 I= 2 D=  3.42D-04 Err=  2.98D-04
      PEZero:  N= 3 I= 1 D=  6.84D-04 Err=  1.00D-07
 Maximum DWI energy   std dev =  0.000000324 at pt     8
 Maximum DWI gradient std dev =  0.075330556 at pt     1
 CORRECTOR INTEGRATION CONVERGENCE:
   Recorrection delta-x convergence threshold:    0.010000
   Delta-x Convergence Met
 Point Number:   1          Path Number:   1
   CHANGE IN THE REACTION COORDINATE =    0.13132
   NET REACTION COORDINATE UP TO THIS POINT =    0.13132
  # OF POINTS ALONG THE PATH =   1
  # OF STEPS =   1

 Calculating another point on the path.
 IRC-IRC-IRC-IRC-IRC-IRC-IRC-IRC-IRC-IRC-IRC-IRC-IRC-IRC-IRC-IRC-IRC-IRC
                          Input orientation:                          
 ---------------------------------------------------------------------
 Center     Atomic      Atomic             Coordinates (Angstroms)
 Number     Number       Type             X           Y           Z
 ---------------------------------------------------------------------
      1          6           0        0.000599    1.279352   -0.709815
      2          6           0       -1.233323    0.626274   -0.660140
      3          6           0       -1.260778   -0.777224   -0.603288
      4          6           0       -0.084007   -1.502768   -0.729240
      5          6           0        1.333420   -0.706740    0.878463
      6          6           0        1.089276    0.686506    0.936523
      7          1           0       -0.001959    2.363909   -0.641875
      8          1           0       -0.100429   -2.569354   -0.533820
      9          1           0        0.831845   -1.362608    1.570681
     10          1           0        0.361256    1.013462    1.671255
     11          1           0        0.697392   -1.170638   -1.395285
     12          1           0        0.792958    0.888380   -1.331821
     13          7           0        2.248245    1.515542    0.703780
     14          1           0        2.067248    2.473549    0.446270
     15          1           0        3.002012    1.414587    1.373194
     16          7           0        2.595257   -1.140374    0.431741
     17          1           0        3.113512   -0.479723   -0.128613
     18          1           0        2.711715   -2.112775    0.201382
     19          7           0       -2.414475    1.310646   -0.269147
     20          1           0       -2.400663    2.313298   -0.372073
     21          1           0       -3.275971    0.879924   -0.577860
     22          7           0       -2.465390   -1.371839   -0.157570
     23          1           0       -2.530335   -2.374989   -0.199354
     24          1           0       -2.920015   -0.941083    0.636824
 ---------------------------------------------------------------------
                    Distance matrix (angstroms):
                    1          2          3          4          5
     1  C    0.000000
     2  C    1.396977   0.000000
     3  C    2.414938   1.404917   0.000000
     4  C    2.783474   2.420438   1.388189   0.000000
     5  C    2.871166   3.276033   2.988380   2.286365   0.000000
     6  C    2.060852   2.819118   3.168008   2.990699   1.415666
     7  H    1.086685   2.129781   3.384203   3.868534   3.677437
     8  H    3.854053   3.392852   2.136111   1.084465   2.742225
     9  H    3.587699   3.632786   3.073742   2.479529   1.077454
    10  H    2.422863   2.850964   3.318297   3.506001   2.129018
    11  H    2.637772   2.738063   2.148596   1.079125   2.406172
    12  H    1.080548   2.150737   2.742777   2.617204   2.778823
    13  N    2.665698   3.843486   4.390722   4.074695   2.409555
    14  H    2.652108   3.940855   4.769156   4.671276   3.292345
    15  H    3.655912   4.763817   5.184775   4.738639   2.743900
    16  N    3.726993   4.355603   4.009011   2.942390   1.407065
    17  H    3.622481   4.516716   4.410015   3.410499   2.057782
    18  H    4.436999   4.879338   4.267540   3.009025   2.082084
    19  N    2.455148   1.419986   2.408706   3.682127   4.408352
    20  H    2.636129   2.071646   3.302139   4.478484   4.962645
    21  H    3.303463   2.059980   2.609174   3.986072   5.087716
    22  N    3.662634   2.400629   1.415387   2.452536   3.993329
    23  H    4.474417   3.301840   2.080335   2.650673   4.344346
    24  H    3.908166   2.642660   2.077931   3.197587   4.266734
                    6          7          8          9         10
     6  C    0.000000
     7  H    2.548689   0.000000
     8  H    3.765359   4.935429   0.000000
     9  H    2.160393   4.413339   2.598903   0.000000
    10  H    1.084779   2.702998   4.232267   2.424310   0.000000
    11  H    3.006640   3.680997   1.826211   2.975212   3.779808
    12  H    2.296506   1.812486   3.659353   3.673278   3.036524
    13  N    1.443841   2.755708   4.871786   3.322868   2.179179
    14  H    2.095304   2.340448   5.575865   4.184092   2.557900
    15  H    2.092688   3.739727   5.397558   3.530076   2.687626
    16  N    2.420800   4.492013   3.200158   2.110969   3.341582
    17  H    2.567515   4.249216   3.854889   2.978773   3.611654
    18  H    3.317939   5.302434   2.942302   2.443694   4.178343
    19  N    3.757587   2.658669   4.525402   4.590191   3.399729
    20  H    4.066762   2.414360   5.399772   5.266469   3.673276
    21  H    4.624516   3.595200   4.688659   5.149693   4.278524
    22  N    4.250820   4.500983   2.677433   3.722727   4.126038
    23  H    4.874890   5.389403   2.460506   3.932200   4.831364
    24  H    4.337428   4.590544   3.460021   3.889246   3.956897
                   11         12         13         14         15
    11  H    0.000000
    12  H    2.062211   0.000000
    13  N    3.745234   2.579701   0.000000
    14  H    4.306731   2.701515   1.008389   0.000000
    15  H    4.433863   3.531843   1.013150   1.689489   0.000000
    16  N    2.634546   3.236398   2.692269   3.652321   2.753109
    17  H    2.814153   2.950319   2.328658   3.185432   2.419972
    18  H    2.737603   3.878050   3.692140   4.637853   3.728230
    19  N    4.136263   3.405174   4.767549   4.685083   5.660956
    20  H    4.773124   3.626393   4.837997   4.545062   5.748264
    21  H    4.545393   4.138202   5.706450   5.669080   6.595874
    22  N    3.402294   4.135732   5.594394   5.974649   6.324546
    23  H    3.646770   4.793363   6.227897   6.712892   6.887718
    24  H    4.155454   4.583521   5.722797   6.047216   6.415749
                   16         17         18         19         20
    16  N    0.000000
    17  H    1.009478   0.000000
    18  H    1.006077   1.713826   0.000000
    19  N    5.621046   5.812384   6.182155   0.000000
    20  H    6.126433   6.185981   6.786412   1.008016   0.000000
    21  H    6.290645   6.547973   6.739128   1.011435   1.692062
    22  N    5.100099   5.649854   5.242161   2.685287   3.691942
    23  H    5.309825   5.953994   5.263880   3.688116   4.693260
    24  H    5.522681   6.099361   5.768784   2.479241   3.446534
                   21         22         23         24
    21  H    0.000000
    22  N    2.429839   0.000000
    23  H    3.360610   1.006119   0.000000
    24  H    2.217707   1.011582   1.705032   0.000000
 Symmetry turned off by external request.
 Stoichiometry    C6H14N4
 Framework group  C1[X(C6H14N4)]
 Deg. of freedom    66
 Full point group                 C1      NOp   1
 Rotational constants (GHZ):           1.9954380           0.9444620           0.7126778
 Basis read from rwf:  (5D, 7F)
 Pseudo-potential data read from rwf file.
   182 basis functions,   360 primitive gaussians,   182 cartesian basis functions
    39 alpha electrons       39 beta electrons
       nuclear repulsion energy       560.6046881479 Hartrees.
 NAtoms=   24 NActive=   24 NUniq=   24 SFac= 1.00D+00 NAtFMM=   60 NAOKFM=F Big=F
 Integral buffers will be    131072 words long.
 Raffenetti 2 integral format.
 Two-electron integral symmetry is turned off.
 One-electron integrals computed using PRISM.
   1 Symmetry operations used in ECPInt.
 ECPInt:  NShTT=    7503 NPrTT=   29182 LenC2=    7210 LenP2D=   20244.
 LDataN:  DoStor=T MaxTD1= 2 Len=   12
 NBasis=   182 RedAO= T EigKep=  4.41D-05  NBF=   182
 NBsUse=   182 1.00D-06 EigRej= -1.00D+00 NBFU=   182
 Initial guess from the checkpoint file:  "dairc10-testr.chk"
 B after Tr=     0.000094    0.000003    0.000054
         Rot=    1.000000   -0.000003    0.000003   -0.000005 Ang=  -0.00 deg.
 ExpMin= 9.52D-02 ExpMax= 1.97D+04 ExpMxC= 6.73D+02 IAcc=3 IRadAn=         5 AccDes= 0.00D+00
 Harris functional with IExCor= 1009 and IRadAn=       5 diagonalized for initial guess.
 HarFok:  IExCor= 1009 AccDes= 0.00D+00 IRadAn=         5 IDoV= 1 UseB2=F ITyADJ=14
 ICtDFT=  3500011 ScaDFX=  1.000000  1.000000  1.000000  1.000000
 FoFCou: FMM=F IPFlag=           0 FMFlag=      100000 FMFlg1=           0
         NFxFlg=           0 DoJE=T BraDBF=F KetDBF=T FulRan=T
         wScrn=  0.000000 ICntrl=       500 IOpCl=  0 I1Cent=   200000004 NGrid=           0
         NMat0=    1 NMatS0=      1 NMatT0=    0 NMatD0=    1 NMtDS0=    0 NMtDT0=    0
 Symmetry not used in FoFCou.
 Requested convergence on RMS density matrix=1.00D-08 within  32 cycles.
 Requested convergence on MAX density matrix=1.00D-06.
 Requested convergence on             energy=1.00D-06.
 No special actions if energy rises.
 SCF Done:  E(RM062X) =  -455.770970709     A.U. after   12 cycles
            NFock= 12  Conv=0.52D-08     -V/T= 2.0047
 QCSCF skips out because SCF is already converged.
 DoSCS=F DFT=T ScalE2(SS,OS)=  1.000000  1.000000
 Range of M.O.s used for correlation:     1   182
 NBasis=   182 NAE=    39 NBE=    39 NFC=     0 NFV=     0
 NROrb=    182 NOA=    39 NOB=    39 NVA=   143 NVB=   143

 **** Warning!!: The largest alpha MO coefficient is  0.29806479D+02

   1 Symmetry operations used in ECPInt.
 ECPInt:  NShTT=    7503 NPrTT=   29182 LenC2=    7210 LenP2D=   20244.
 LDataN:  DoStor=T MaxTD1= 3 Len=   28
 Symmetrizing basis deriv contribution to polar:
 IMax=3 JMax=2 DiffMx= 0.00D+00
 G2DrvN: will do    25 centers at a time, making    1 passes.
 Calling FoFCou, ICntrl=  3107 FMM=F I1Cent=   0 AccDes= 1.00D-11.
 End of G2Drv F.D. properties file   721 does not exist.
 End of G2Drv F.D. properties file   722 does not exist.
 End of G2Drv F.D. properties file   788 does not exist.
          IDoAtm=111111111111111111111111
          Differentiating once with respect to nuclear coordinates.
 Keep R1 ints in memory in canonical form, NReq=154823143.
          There are    75 degrees of freedom in the 1st order CPHF.  IDoFFX=6 NUNeed=     0.
     69 vectors produced by pass  0 Test12= 7.44D-15 1.33D-09 XBig12= 1.14D-01 1.38D-01.
 AX will form    69 AO Fock derivatives at one time.
     69 vectors produced by pass  1 Test12= 7.44D-15 1.33D-09 XBig12= 1.79D-02 3.52D-02.
     69 vectors produced by pass  2 Test12= 7.44D-15 1.33D-09 XBig12= 2.18D-04 2.36D-03.
     69 vectors produced by pass  3 Test12= 7.44D-15 1.33D-09 XBig12= 1.27D-06 1.66D-04.
     69 vectors produced by pass  4 Test12= 7.44D-15 1.33D-09 XBig12= 5.64D-09 1.38D-05.
     69 vectors produced by pass  5 Test12= 7.44D-15 1.33D-09 XBig12= 2.03D-11 6.33D-07.
     34 vectors produced by pass  6 Test12= 7.44D-15 1.33D-09 XBig12= 5.87D-14 2.13D-08.
 InvSVY:  IOpt=1 It=  1 EMax= 3.61D-16
 Solved reduced A of dimension   448 with    75 vectors.
 End of Minotr F.D. properties file   721 does not exist.
 End of Minotr F.D. properties file   722 does not exist.
 End of Minotr F.D. properties file   788 does not exist.
   1 Symmetry operations used in ECPInt.
 ECPInt:  NShTT=    7503 NPrTT=   29182 LenC2=    7210 LenP2D=   20244.
 LDataN:  DoStor=T MaxTD1= 4 Len=   56
 Calling FoFJK, ICntrl=    100127 FMM=F ISym2X=0 I1Cent= 0 IOpClX= 0 NMat=1 NMatS=1 NMatT=0.
 -------------------------------------------------------------------
 Center     Atomic                   Forces (Hartrees/Bohr)
 Number     Number              X              Y              Z
 -------------------------------------------------------------------
      1        6           0.004270935   -0.001920897    0.005833159
      2        6          -0.000497621   -0.001693968    0.000751775
      3        6          -0.000447759    0.001475466    0.000297359
      4        6           0.003918981    0.001613986    0.004010387
      5        6          -0.003651566   -0.002607381   -0.004700480
      6        6          -0.004218346    0.002662675   -0.006398868
      7        1           0.000126067   -0.000128965    0.000260817
      8        1           0.000129784    0.000094170    0.000135074
      9        1           0.000292038    0.000262070    0.000377512
     10        1           0.000172430   -0.000064345    0.000082792
     11        1          -0.000168765   -0.000191080   -0.000348792
     12        1          -0.000246814    0.000228699   -0.000414492
     13        7           0.000104202   -0.000266848    0.000085263
     14        1           0.000182759    0.000041254    0.000111738
     15        1          -0.000196964   -0.000217057    0.000172359
     16        7          -0.000188805    0.000502341    0.000367252
     17        1          -0.000101924    0.000031028   -0.000063882
     18        1           0.000135955    0.000034875    0.000103478
     19        7           0.000256653    0.000409518   -0.000208329
     20        1           0.000055856    0.000018336   -0.000133099
     21        1          -0.000003450    0.000028613    0.000026943
     22        7           0.000058572   -0.000238420   -0.000288131
     23        1           0.000025548   -0.000013386   -0.000061007
     24        1          -0.000007767   -0.000060685    0.000001172
 -------------------------------------------------------------------
 Cartesian Forces:  Max     0.006398868 RMS     0.001692852
 IRC-IRC-IRC-IRC-IRC-IRC-IRC-IRC-IRC-IRC-IRC-IRC-IRC-IRC-IRC-IRC-IRC-IRC
 Pt  2 Step number   1 out of a maximum of  20
 Modified Bulirsch-Stoer Extrapolation Cycles:
    EPS =    0.000010000000000
      PEZero:  N= 2 I= 1 D=  6.84D-04 Err=  4.11D-06
 Maximum DWI energy   std dev =  0.000000446 at pt    34
 Maximum DWI gradient std dev =  0.010854646 at pt    11
 CORRECTOR INTEGRATION CONVERGENCE:
   Recorrection delta-x convergence threshold:    0.010000
   Delta-x Convergence Met
 Point Number:   2          Path Number:   1
   CHANGE IN THE REACTION COORDINATE =    0.13128
   NET REACTION COORDINATE UP TO THIS POINT =    0.26260
  # OF POINTS ALONG THE PATH =   2
  # OF STEPS =   1

 Calculating another point on the path.
 IRC-IRC-IRC-IRC-IRC-IRC-IRC-IRC-IRC-IRC-IRC-IRC-IRC-IRC-IRC-IRC-IRC-IRC
                          Input orientation:                          
 ---------------------------------------------------------------------
 Center     Atomic      Atomic             Coordinates (Angstroms)
 Number     Number       Type             X           Y           Z
 ---------------------------------------------------------------------
      1          6           0        0.006305    1.276795   -0.701828
      2          6           0       -1.233971    0.623978   -0.659114
      3          6           0       -1.261368   -0.775224   -0.602884
      4          6           0       -0.078757   -1.500606   -0.723773
      5          6           0        1.328502   -0.710191    0.872023
      6          6           0        1.083598    0.690074    0.927808
      7          1           0        0.000087    2.361935   -0.637719
      8          1           0       -0.098354   -2.567962   -0.531672
      9          1           0        0.836018   -1.359193    1.577572
     10          1           0        0.363563    1.012715    1.673103
     11          1           0        0.695280   -1.173493   -1.401522
     12          1           0        0.790016    0.891568   -1.339287
     13          7           0        2.248357    1.515244    0.703873
     14          1           0        2.070202    2.474298    0.448039
     15          1           0        2.999035    1.411083    1.376147
     16          7           0        2.595045   -1.139803    0.432176
     17          1           0        3.111822   -0.479200   -0.129671
     18          1           0        2.713956   -2.112302    0.203001
     19          7           0       -2.414190    1.311130   -0.269398
     20          1           0       -2.399772    2.313589   -0.374228
     21          1           0       -3.276024    0.880383   -0.577407
     22          7           0       -2.465340   -1.372118   -0.157902
     23          1           0       -2.529940   -2.375210   -0.200354
     24          1           0       -2.920140   -0.942076    0.636901
 ---------------------------------------------------------------------
                    Distance matrix (angstroms):
                    1          2          3          4          5
     1  C    0.000000
     2  C    1.402241   0.000000
     3  C    2.414036   1.400600   0.000000
     4  C    2.778790   2.419206   1.392610   0.000000
     5  C    2.858903   3.269657   2.981108   2.269736   0.000000
     6  C    2.039734   2.809594   3.160535   2.979575   1.422614
     7  H    1.087050   2.131631   3.381457   3.864304   3.671780
     8  H    3.849944   3.390332   2.138126   1.084683   2.730860
     9  H    3.582251   3.636013   3.081304   2.480525   1.077750
    10  H    2.416127   2.853501   3.319223   3.501063   2.131019
    11  H    2.639729   2.739358   2.150561   1.079574   2.405124
    12  H    1.081183   2.151921   2.743841   2.618419   2.783072
    13  N    2.657000   3.844307   4.389992   4.068044   2.413912
    14  H    2.648750   3.945508   4.771078   4.668086   3.297098
    15  H    3.645880   4.762369   5.181461   4.728679   2.746748
    16  N    3.718533   4.354676   4.009512   2.935237   1.407893
    17  H    3.613187   4.514780   4.408668   3.402355   2.058392
    18  H    4.431260   4.880226   4.270882   3.005383   2.081583
    19  N    2.459059   1.420201   2.406883   3.683281   4.404126
    20  H    2.640355   2.072447   3.299850   4.478546   4.959477
    21  H    3.308521   2.059709   2.607781   3.989116   5.082562
    22  N    3.663555   2.398309   1.415571   2.456115   3.986494
    23  H    4.474502   3.299262   2.081169   2.654657   4.337034
    24  H    3.908921   2.641088   2.077602   3.199508   4.261457
                    6          7          8          9         10
     6  C    0.000000
     7  H    2.533770   0.000000
     8  H    3.760571   4.932021   0.000000
     9  H    2.164021   4.410566   2.604436   0.000000
    10  H    1.085362   2.700446   4.230325   2.420390   0.000000
    11  H    3.008230   3.683197   1.825114   2.988192   3.787196
    12  H    2.294888   1.810571   3.661939   3.684578   3.044837
    13  N    1.444893   2.751631   4.868902   3.319705   2.178162
    14  H    2.094522   2.340272   5.575559   4.182668   2.559223
    15  H    2.095176   3.735434   5.391326   3.520461   2.681901
    16  N    2.424577   4.487834   3.197349   2.110507   3.339572
    17  H    2.568883   4.244180   3.850944   2.977978   3.609534
    18  H    3.322157   5.300066   2.942187   2.446073   4.177473
    19  N    3.748804   2.658681   4.525399   4.594102   3.402686
    20  H    4.057704   2.414765   5.399153   5.269648   3.676936
    21  H    4.616080   3.596045   4.689431   5.154467   4.281227
    22  N    4.245747   4.500190   2.678128   3.729746   4.128281
    23  H    4.870973   5.388216   2.461612   3.939922   4.833243
    24  H    4.333412   4.590084   3.459992   3.894556   3.959498
                   11         12         13         14         15
    11  H    0.000000
    12  H    2.068169   0.000000
    13  N    3.751538   2.586548   0.000000
    14  H    4.314819   2.708956   1.008452   0.000000
    15  H    4.438779   3.538819   1.013074   1.689539   0.000000
    16  N    2.640585   3.243868   2.691336   3.652046   2.749783
    17  H    2.817680   2.955158   2.327698   3.184632   2.419376
    18  H    2.744250   3.886313   3.691442   4.638035   3.724484
    19  N    4.138098   3.404061   4.767416   4.688010   5.658693
    20  H    4.774350   3.623291   4.837846   4.547814   5.746777
    21  H    4.546298   4.136819   5.706445   5.672234   6.593511
    22  N    3.402288   4.137305   5.594503   5.977728   6.321306
    23  H    3.645405   4.794906   6.227792   6.715613   6.884108
    24  H    4.156920   4.586156   5.723309   6.050685   6.412525
                   16         17         18         19         20
    16  N    0.000000
    17  H    1.009518   0.000000
    18  H    1.006189   1.713473   0.000000
    19  N    5.620650   5.810475   6.183925   0.000000
    20  H    6.125716   6.183620   6.787630   1.008028   0.000000
    21  H    6.290458   6.546260   6.741295   1.011519   1.692093
    22  N    5.099967   5.648260   5.244353   2.686051   3.692632
    23  H    5.309595   5.952255   5.265954   3.688803   4.693827
    24  H    5.522524   6.098070   5.770679   2.480786   3.448552
                   21         22         23         24
    21  H    0.000000
    22  N    2.430422   0.000000
    23  H    3.361204   1.006066   0.000000
    24  H    2.218682   1.011678   1.705030   0.000000
 Symmetry turned off by external request.
 Stoichiometry    C6H14N4
 Framework group  C1[X(C6H14N4)]
 Deg. of freedom    66
 Full point group                 C1      NOp   1
 Rotational constants (GHZ):           1.9989840           0.9459150           0.7133125
 Basis read from rwf:  (5D, 7F)
 Pseudo-potential data read from rwf file.
   182 basis functions,   360 primitive gaussians,   182 cartesian basis functions
    39 alpha electrons       39 beta electrons
       nuclear repulsion energy       560.8057879696 Hartrees.
 NAtoms=   24 NActive=   24 NUniq=   24 SFac= 1.00D+00 NAtFMM=   60 NAOKFM=F Big=F
 Integral buffers will be    131072 words long.
 Raffenetti 2 integral format.
 Two-electron integral symmetry is turned off.
 One-electron integrals computed using PRISM.
   1 Symmetry operations used in ECPInt.
 ECPInt:  NShTT=    7503 NPrTT=   29182 LenC2=    7210 LenP2D=   20244.
 LDataN:  DoStor=T MaxTD1= 2 Len=   12
 NBasis=   182 RedAO= T EigKep=  4.30D-05  NBF=   182
 NBsUse=   182 1.00D-06 EigRej= -1.00D+00 NBFU=   182
 Initial guess from the checkpoint file:  "dairc10-testr.chk"
 B after Tr=     0.000086    0.000002    0.000048
         Rot=    1.000000   -0.000003    0.000003   -0.000002 Ang=  -0.00 deg.
 ExpMin= 9.52D-02 ExpMax= 1.97D+04 ExpMxC= 6.73D+02 IAcc=3 IRadAn=         5 AccDes= 0.00D+00
 Harris functional with IExCor= 1009 and IRadAn=       5 diagonalized for initial guess.
 HarFok:  IExCor= 1009 AccDes= 0.00D+00 IRadAn=         5 IDoV= 1 UseB2=F ITyADJ=14
 ICtDFT=  3500011 ScaDFX=  1.000000  1.000000  1.000000  1.000000
 FoFCou: FMM=F IPFlag=           0 FMFlag=      100000 FMFlg1=           0
         NFxFlg=           0 DoJE=T BraDBF=F KetDBF=T FulRan=T
         wScrn=  0.000000 ICntrl=       500 IOpCl=  0 I1Cent=   200000004 NGrid=           0
         NMat0=    1 NMatS0=      1 NMatT0=    0 NMatD0=    1 NMtDS0=    0 NMtDT0=    0
 Symmetry not used in FoFCou.
 Requested convergence on RMS density matrix=1.00D-08 within  32 cycles.
 Requested convergence on MAX density matrix=1.00D-06.
 Requested convergence on             energy=1.00D-06.
 No special actions if energy rises.
 SCF Done:  E(RM062X) =  -455.771683349     A.U. after   12 cycles
            NFock= 12  Conv=0.53D-08     -V/T= 2.0047
 QCSCF skips out because SCF is already converged.
 DoSCS=F DFT=T ScalE2(SS,OS)=  1.000000  1.000000
 Range of M.O.s used for correlation:     1   182
 NBasis=   182 NAE=    39 NBE=    39 NFC=     0 NFV=     0
 NROrb=    182 NOA=    39 NOB=    39 NVA=   143 NVB=   143

 **** Warning!!: The largest alpha MO coefficient is  0.30237686D+02

   1 Symmetry operations used in ECPInt.
 ECPInt:  NShTT=    7503 NPrTT=   29182 LenC2=    7210 LenP2D=   20244.
 LDataN:  DoStor=T MaxTD1= 3 Len=   28
 Symmetrizing basis deriv contribution to polar:
 IMax=3 JMax=2 DiffMx= 0.00D+00
 G2DrvN: will do    25 centers at a time, making    1 passes.
 Calling FoFCou, ICntrl=  3107 FMM=F I1Cent=   0 AccDes= 1.00D-11.
 End of G2Drv F.D. properties file   721 does not exist.
 End of G2Drv F.D. properties file   722 does not exist.
 End of G2Drv F.D. properties file   788 does not exist.
          IDoAtm=111111111111111111111111
          Differentiating once with respect to nuclear coordinates.
 Keep R1 ints in memory in canonical form, NReq=154823143.
          There are    75 degrees of freedom in the 1st order CPHF.  IDoFFX=6 NUNeed=     0.
     69 vectors produced by pass  0 Test12= 7.44D-15 1.33D-09 XBig12= 1.13D-01 1.35D-01.
 AX will form    69 AO Fock derivatives at one time.
     69 vectors produced by pass  1 Test12= 7.44D-15 1.33D-09 XBig12= 1.80D-02 3.52D-02.
     69 vectors produced by pass  2 Test12= 7.44D-15 1.33D-09 XBig12= 2.21D-04 2.45D-03.
     69 vectors produced by pass  3 Test12= 7.44D-15 1.33D-09 XBig12= 1.29D-06 1.70D-04.
     69 vectors produced by pass  4 Test12= 7.44D-15 1.33D-09 XBig12= 5.68D-09 1.38D-05.
     69 vectors produced by pass  5 Test12= 7.44D-15 1.33D-09 XBig12= 2.04D-11 6.42D-07.
     35 vectors produced by pass  6 Test12= 7.44D-15 1.33D-09 XBig12= 5.98D-14 2.11D-08.
 InvSVY:  IOpt=1 It=  1 EMax= 3.33D-16
 Solved reduced A of dimension   449 with    75 vectors.
 End of Minotr F.D. properties file   721 does not exist.
 End of Minotr F.D. properties file   722 does not exist.
 End of Minotr F.D. properties file   788 does not exist.
   1 Symmetry operations used in ECPInt.
 ECPInt:  NShTT=    7503 NPrTT=   29182 LenC2=    7210 LenP2D=   20244.
 LDataN:  DoStor=T MaxTD1= 4 Len=   56
 Calling FoFJK, ICntrl=    100127 FMM=F ISym2X=0 I1Cent= 0 IOpClX= 0 NMat=1 NMatS=1 NMatT=0.
 -------------------------------------------------------------------
 Center     Atomic                   Forces (Hartrees/Bohr)
 Number     Number              X              Y              Z
 -------------------------------------------------------------------
      1        6           0.006614819   -0.002902439    0.009036100
      2        6          -0.000765915   -0.002590258    0.001195719
      3        6          -0.000704462    0.002256060    0.000482587
      4        6           0.006068011    0.002445197    0.006176912
      5        6          -0.005644933   -0.004059783   -0.007290520
      6        6          -0.006491337    0.004143488   -0.009869912
      7        1           0.000190945   -0.000192676    0.000391836
      8        1           0.000194112    0.000137334    0.000200968
      9        1           0.000430763    0.000383927    0.000603746
     10        1           0.000246353   -0.000087711    0.000135108
     11        1          -0.000248824   -0.000298616   -0.000564515
     12        1          -0.000347403    0.000341941   -0.000650054
     13        7           0.000157616   -0.000390523    0.000127694
     14        1           0.000279274    0.000066347    0.000170745
     15        1          -0.000298522   -0.000329307    0.000271211
     16        7          -0.000271186    0.000756631    0.000574202
     17        1          -0.000162027    0.000046520   -0.000103490
     18        1           0.000210220    0.000049489    0.000155304
     19        7           0.000382006    0.000640475   -0.000350436
     20        1           0.000084073    0.000028008   -0.000205961
     21        1          -0.000006074    0.000043154    0.000043710
     22        7           0.000054686   -0.000369100   -0.000443322
     23        1           0.000035793   -0.000020888   -0.000096062
     24        1          -0.000007990   -0.000097271    0.000008430
 -------------------------------------------------------------------
 Cartesian Forces:  Max     0.009869912 RMS     0.002615496
 IRC-IRC-IRC-IRC-IRC-IRC-IRC-IRC-IRC-IRC-IRC-IRC-IRC-IRC-IRC-IRC-IRC-IRC
 Pt  3 Step number   1 out of a maximum of  20
 Modified Bulirsch-Stoer Extrapolation Cycles:
    EPS =    0.000010000000000
      PEZero:  N= 2 I= 1 D=  6.84D-04 Err=  2.87D-06
 Maximum DWI energy   std dev =  0.000000324 at pt    46
 Maximum DWI gradient std dev =  0.005621780 at pt    15
 CORRECTOR INTEGRATION CONVERGENCE:
   Recorrection delta-x convergence threshold:    0.010000
   Delta-x Convergence Met
 Point Number:   3          Path Number:   1
   CHANGE IN THE REACTION COORDINATE =    0.13129
   NET REACTION COORDINATE UP TO THIS POINT =    0.39389
  # OF POINTS ALONG THE PATH =   3
  # OF STEPS =   1

 Calculating another point on the path.
 IRC-IRC-IRC-IRC-IRC-IRC-IRC-IRC-IRC-IRC-IRC-IRC-IRC-IRC-IRC-IRC-IRC-IRC
                          Input orientation:                          
 ---------------------------------------------------------------------
 Center     Atomic      Atomic             Coordinates (Angstroms)
 Number     Number       Type             X           Y           Z
 ---------------------------------------------------------------------
      1          6           0        0.012070    1.274290   -0.693867
      2          6           0       -1.234636    0.621709   -0.658049
      3          6           0       -1.261984   -0.773248   -0.602451
      4          6           0       -0.073450   -1.498482   -0.718335
      5          6           0        1.323564   -0.713731    0.865579
      6          6           0        1.077932    0.693703    0.919139
      7          1           0        0.002068    2.360002   -0.633673
      8          1           0       -0.096345   -2.566605   -0.529598
      9          1           0        0.840187   -1.355619    1.584319
     10          1           0        0.365850    1.011957    1.674764
     11          1           0        0.693021   -1.176499   -1.407784
     12          1           0        0.786979    0.894864   -1.346489
     13          7           0        2.248468    1.514958    0.703963
     14          1           0        2.073099    2.475038    0.449804
     15          1           0        2.996033    1.407662    1.379074
     16          7           0        2.594845   -1.139242    0.432611
     17          1           0        3.110111   -0.478708   -0.130776
     18          1           0        2.716175   -2.111831    0.204604
     19          7           0       -2.413909    1.311616   -0.269672
     20          1           0       -2.398904    2.313884   -0.376360
     21          1           0       -3.276088    0.880833   -0.576946
     22          7           0       -2.465311   -1.372399   -0.158236
     23          1           0       -2.529588   -2.375432   -0.201366
     24          1           0       -2.920230   -0.943094    0.637019
 ---------------------------------------------------------------------
                    Distance matrix (angstroms):
                    1          2          3          4          5
     1  C    0.000000
     2  C    1.407629   0.000000
     3  C    2.413292   1.396332   0.000000
     4  C    2.774198   2.418098   1.397142   0.000000
     5  C    2.846772   3.263315   2.973837   2.253057   0.000000
     6  C    2.018646   2.800121   3.153155   2.968616   1.429711
     7  H    1.087426   2.133470   3.378766   3.860152   3.666325
     8  H    3.845935   3.387854   2.140129   1.084911   2.719523
     9  H    3.576636   3.639083   3.088728   2.481402   1.078083
    10  H    2.409230   2.855847   3.320016   3.496028   2.133072
    11  H    2.641920   2.740715   2.152491   1.080042   2.404146
    12  H    1.081834   2.153020   2.744894   2.619737   2.787247
    13  N    2.648268   3.845125   4.389291   4.061410   2.418392
    14  H    2.645301   3.950098   4.772984   4.664877   3.301956
[...]
     18          1           0        2.550306   -2.191271    0.892788
     19          7           0       -2.470575    1.313103   -0.336149
     20          1           0       -2.501662    2.299368   -0.161820
     21          1           0       -3.320595    0.774387   -0.326967
     22          7           0       -2.396615   -1.504117   -0.461320
     23          1           0       -2.609770   -1.933115   -1.353515
     24          1           0       -2.527292   -2.149404    0.307484
 ---------------------------------------------------------------------
                    Distance matrix (angstroms):
                    1          2          3          4          5
     1  C    0.000000
     2  C    1.504706   0.000000
     3  C    2.437516   1.342908   0.000000
     4  C    2.731662   2.437157   1.510284   0.000000
     5  C    2.584755   2.893501   2.513497   1.545522   0.000000
     6  C    1.541972   2.534676   2.926422   2.573109   1.565602
     7  H    1.092386   2.150344   3.344046   3.808787   3.507142
     8  H    3.807462   3.336060   2.145512   1.092007   2.163008
     9  H    3.195291   3.206615   2.752821   2.130771   1.090715
    10  H    2.144953   2.897168   3.405265   3.308272   2.161309
    11  H    2.846540   2.854029   2.176717   1.098787   2.154777
    12  H    1.094169   2.136042   2.812056   2.835680   2.953852
    13  N    2.432874   3.766315   4.180145   3.535299   2.488002
    14  H    2.605337   4.081181   4.755570   4.337081   3.399887
    15  H    3.347294   4.567898   4.821302   3.984574   2.698310
    16  N    3.714599   4.279006   3.839594   2.529794   1.466082
    17  H    3.777073   4.519850   4.161579   2.801015   2.080342
    18  H    4.566008   4.906129   4.229983   2.849882   2.089205
    19  N    2.483502   1.381838   2.402068   3.748727   4.212918
    20  H    2.675726   2.088138   3.300117   4.523984   4.759566
    21  H    3.389974   2.050819   2.601158   4.092432   4.750249
    22  N    3.773206   2.403596   1.437404   2.592747   3.730728
    23  H    4.358523   3.050995   2.087632   3.004250   4.371209
    24  H    4.410135   3.107563   2.085326   2.938498   3.886655
                    6          7          8          9         10
     6  C    0.000000
     7  H    2.166258   0.000000
     8  H    3.506664   4.872126   0.000000
     9  H    2.152332   3.989570   2.414660   0.000000
    10  H    1.096371   2.381262   4.125455   2.213610   0.000000
    11  H    2.887599   3.923509   1.760631   3.027590   3.843945
    12  H    2.137157   1.759477   3.912083   3.808749   3.014147
    13  N    1.468890   2.787618   4.425411   3.250498   2.131723
    14  H    2.092480   2.565828   5.301540   4.101812   2.523502
    15  H    2.081100   3.707137   4.709994   3.306814   2.478327
    16  N    2.488035   4.576387   2.797805   2.064989   3.093376
    17  H    2.759143   4.632091   3.177288   2.939670   3.582169
    18  H    3.389443   5.476529   2.715986   2.345479   3.886314
    19  N    3.681113   2.572619   4.537939   4.362748   3.785527
    20  H    3.920393   2.333113   5.393529   4.920577   3.890835
    21  H    4.471933   3.571808   4.691864   4.768666   4.538624
    22  N    4.306007   4.550226   2.684865   3.701808   4.631539
    23  H    5.004165   5.165995   2.965671   4.485290   5.467335
    24  H    4.664414   5.184951   2.739111   3.593009   4.844155
                   11         12         13         14         15
    11  H    0.000000
    12  H    2.515699   0.000000
    13  N    3.462533   2.492974   0.000000
    14  H    4.206552   2.629020   1.012893   0.000000
    15  H    3.989289   3.466140   1.012852   1.685021   0.000000
    16  N    2.721659   3.809982   2.602922   3.614681   2.349484
    17  H    2.576013   3.586831   2.450164   3.402088   2.284615
    18  H    3.133576   4.674345   3.610925   4.621282   3.275262
    19  N    4.152380   3.105164   4.871955   4.984802   5.711247
    20  H    4.865690   3.330764   4.971835   4.888035   5.837589
    21  H    4.583084   3.964553   5.745011   5.935253   6.540391
    22  N    3.253782   4.141286   5.605981   6.178162   6.205987
    23  H    3.397797   4.505273   6.187846   6.758648   6.819507
    24  H    3.785994   4.894094   6.019608   6.668590   6.492330
                   16         17         18         19         20
    16  N    0.000000
    17  H    1.013591   0.000000
    18  H    1.011684   1.682338   0.000000
    19  N    5.626943   5.885764   6.245012   0.000000
    20  H    6.131958   6.357812   6.841083   1.002035   0.000000
    21  H    6.190158   6.513256   6.689574   1.006396   1.738819
    22  N    4.992573   5.385799   5.174729   2.820970   3.816705
    23  H    5.502951   5.768179   5.633730   3.404753   4.398379
    24  H    5.086025   5.630381   5.111393   3.522277   4.473530
                   21         22         23         24
    21  H    0.000000
    22  N    2.462391   0.000000
    23  H    2.981550   1.012663   0.000000
    24  H    3.095223   1.012192   1.677052   0.000000
 Symmetry turned off by external request.
 Stoichiometry    C6H14N4
 Framework group  C1[X(C6H14N4)]
 Deg. of freedom    66
 Full point group                 C1      NOp   1
 Rotational constants (GHZ):           2.1228536           1.0129649           0.7282128

 **********************************************************************

            Population analysis using the SCF Density.

 **********************************************************************

 Alpha  occ. eigenvalues --  -14.73776 -14.72601 -14.72003 -14.71958 -10.56886
 Alpha  occ. eigenvalues --  -10.56725 -10.56451 -10.53841 -10.53585 -10.52383
 Alpha  occ. eigenvalues --   -1.02283  -1.00403  -0.97088  -0.96063  -0.88144
 Alpha  occ. eigenvalues --   -0.80909  -0.78089  -0.71317  -0.65502  -0.60130
 Alpha  occ. eigenvalues --   -0.59069  -0.58789  -0.56269  -0.55628  -0.54269
 Alpha  occ. eigenvalues --   -0.52354  -0.49320  -0.47750  -0.46962  -0.45161
 Alpha  occ. eigenvalues --   -0.44665  -0.41204  -0.40415  -0.37708  -0.37372
 Alpha  occ. eigenvalues --   -0.31020  -0.29010  -0.27486  -0.22930
 Alpha virt. eigenvalues --    0.05831   0.07048   0.07895   0.08982   0.09955
 Alpha virt. eigenvalues --    0.10151   0.11745   0.13279   0.13513   0.14565
 Alpha virt. eigenvalues --    0.15399   0.16057   0.17956   0.18163   0.19188
 Alpha virt. eigenvalues --    0.19975   0.21652   0.23034   0.24144   0.26419
 Alpha virt. eigenvalues --    0.26762   0.27919   0.28982   0.29391   0.31159
 Alpha virt. eigenvalues --    0.32357   0.33275   0.33990   0.35311   0.36012
 Alpha virt. eigenvalues --    0.36263   0.37803   0.38711   0.40193   0.41450
 Alpha virt. eigenvalues --    0.42338   0.43583   0.44313   0.44821   0.45406
 Alpha virt. eigenvalues --    0.45968   0.46213   0.47545   0.48684   0.49568
 Alpha virt. eigenvalues --    0.49841   0.50674   0.51216   0.51901   0.52198
 Alpha virt. eigenvalues --    0.52345   0.54381   0.54432   0.54756   0.55642
 Alpha virt. eigenvalues --    0.56918   0.57329   0.57878   0.58378   0.59400
 Alpha virt. eigenvalues --    0.60352   0.61474   0.63531   0.64571   0.66159
 Alpha virt. eigenvalues --    0.67527   0.68750   0.69320   0.72050   0.72837
 Alpha virt. eigenvalues --    0.74104   0.74746   0.78027   0.78230   0.81521
 Alpha virt. eigenvalues --    0.84253   0.87520   0.90776   0.96353   1.43877
 Alpha virt. eigenvalues --    1.49047   1.54803   1.55098   1.56684   1.58550
 Alpha virt. eigenvalues --    1.60397   1.62466   1.63655   1.64711   1.65117
 Alpha virt. eigenvalues --    1.65386   1.71167   1.72489   1.73721   1.74744
 Alpha virt. eigenvalues --    1.79226   1.84338   1.86091   1.89736   1.98219
 Alpha virt. eigenvalues --    1.99760   2.00908   2.07252   2.07830   2.08878
 Alpha virt. eigenvalues --    2.12661   2.13049   2.14612   2.16218   2.18026
 Alpha virt. eigenvalues --    2.19262   2.23951   2.24787   2.28249   2.30395
 Alpha virt. eigenvalues --    2.43997   2.46490   2.50996   2.53234   2.54081
 Alpha virt. eigenvalues --    2.56849   2.57415   2.60136   2.65545   2.67149
 Alpha virt. eigenvalues --    2.68112   2.72019   2.72767   2.80014   2.88438
 Alpha virt. eigenvalues --    2.91264   3.02123   3.09307  21.65476  21.82205
 Alpha virt. eigenvalues --   22.04444  22.09007  22.22218  22.26338  31.83942
 Alpha virt. eigenvalues --   31.85375  31.89304  31.93227
          Condensed to atoms (all electrons):
               1          2          3          4          5          6
     1  C    6.357448  -0.250264   0.124126  -0.270555   0.189754  -0.367291
     2  C   -0.250264   6.380012  -0.566451   0.237814  -0.110778   0.220815
     3  C    0.124126  -0.566451   7.064806  -0.529614   0.091443  -0.093201
     4  C   -0.270555   0.237814  -0.529614   6.695222  -0.049734   0.026085
     5  C    0.189754  -0.110778   0.091443  -0.049734   6.957679  -1.077037
     6  C   -0.367291   0.220815  -0.093201   0.026085  -1.077037   7.029793
     7  H    0.413643  -0.085741   0.032590  -0.001310   0.016009  -0.060115
     8  H   -0.001266   0.030839  -0.056198   0.385108  -0.064730   0.019744
     9  H    0.005779  -0.056552   0.058746  -0.091320   0.382330  -0.028135
    10  H   -0.018353   0.000469  -0.007969  -0.000947  -0.062283   0.424699
    11  H    0.003010  -0.088125   0.068475   0.239892  -0.002731   0.000785
    12  H    0.378266   0.014174  -0.057306  -0.005731  -0.021937  -0.003398
    13  N    0.014427   0.007989   0.005114  -0.009543   0.083148   0.029825
    14  H   -0.015830   0.005007  -0.001512   0.001801   0.028237  -0.066103
    15  H    0.006559  -0.001467  -0.000105   0.000374  -0.029164   0.008667
    16  N    0.005262  -0.013955   0.058803  -0.228261   0.093538   0.056702
    17  H   -0.000171  -0.002359   0.000684  -0.012058   0.008297  -0.039198
    18  H   -0.002961   0.001756  -0.003162   0.020004  -0.150960   0.046728
    19  N    0.027290   0.222489  -0.121569   0.015767   0.003575  -0.019674
    20  H   -0.027550  -0.045364   0.014139   0.001969  -0.000328  -0.000193
    21  H    0.006690  -0.029626  -0.015763   0.002160  -0.000490   0.000326
    22  N    0.006443  -0.066899   0.234369  -0.142846   0.009625   0.000564
    23  H   -0.000014  -0.002044  -0.074980  -0.008674   0.002975   0.000395
    24  H    0.001710  -0.038449  -0.080086   0.035881  -0.007287  -0.000302
               7          8          9         10         11         12
     1  C    0.413643  -0.001266   0.005779  -0.018353   0.003010   0.378266
     2  C   -0.085741   0.030839  -0.056552   0.000469  -0.088125   0.014174
     3  C    0.032590  -0.056198   0.058746  -0.007969   0.068475  -0.057306
     4  C   -0.001310   0.385108  -0.091320  -0.000947   0.239892  -0.005731
     5  C    0.016009  -0.064730   0.382330  -0.062283  -0.002731  -0.021937
     6  C   -0.060115   0.019744  -0.028135   0.424699   0.000785  -0.003398
     7  H    0.553048  -0.000018   0.000627  -0.012756   0.000258  -0.037575
     8  H   -0.000018   0.546907  -0.013295   0.000111  -0.035025   0.000103
     9  H    0.000627  -0.013295   0.592326  -0.016105   0.014595  -0.000358
    10  H   -0.012756   0.000111  -0.016105   0.549453  -0.000739   0.008878
    11  H    0.000258  -0.035025   0.014595  -0.000739   0.603734   0.003458
    12  H   -0.037575   0.000103  -0.000358   0.008878   0.003458   0.499298
    13  N    0.003973  -0.000655   0.003415  -0.076463   0.002271  -0.005381
    14  H    0.000539   0.000033  -0.001023   0.003757  -0.000488  -0.000592
    15  H   -0.000788  -0.000062  -0.000108   0.002105  -0.000213   0.000546
    16  N   -0.000190   0.009990  -0.048728   0.004718   0.020668  -0.000392
    17  H    0.000048  -0.001736   0.010714  -0.000491   0.008959   0.000101
    18  H    0.000020   0.004806  -0.016560   0.000450  -0.001564   0.000053
    19  N    0.007419  -0.000278  -0.001646   0.001607  -0.000841   0.001095
    20  H    0.001264   0.000024  -0.000082   0.000419  -0.000136   0.000537
    21  H    0.000666  -0.000052  -0.000045  -0.000106  -0.000112  -0.000348
    22  N   -0.000263   0.021026   0.001764  -0.000059   0.006959  -0.000130
    23  H   -0.000049  -0.000826   0.000074  -0.000008   0.003346   0.000294
    24  H    0.000084   0.001515   0.001120  -0.000099  -0.001048  -0.000202
              13         14         15         16         17         18
     1  C    0.014427  -0.015830   0.006559   0.005262  -0.000171  -0.002961
     2  C    0.007989   0.005007  -0.001467  -0.013955  -0.002359   0.001756
     3  C    0.005114  -0.001512  -0.000105   0.058803   0.000684  -0.003162
     4  C   -0.009543   0.001801   0.000374  -0.228261  -0.012058   0.020004
     5  C    0.083148   0.028237  -0.029164   0.093538   0.008297  -0.150960
     6  C    0.029825  -0.066103   0.008667   0.056702  -0.039198   0.046728
     7  H    0.003973   0.000539  -0.000788  -0.000190   0.000048   0.000020
     8  H   -0.000655   0.000033  -0.000062   0.009990  -0.001736   0.004806
     9  H    0.003415  -0.001023  -0.000108  -0.048728   0.010714  -0.016560
    10  H   -0.076463   0.003757   0.002105   0.004718  -0.000491   0.000450
    11  H    0.002271  -0.000488  -0.000213   0.020668   0.008959  -0.001564
    12  H   -0.005381  -0.000592   0.000546  -0.000392   0.000101   0.000053
    13  N    6.901615   0.329952   0.313743   0.025980   0.007580  -0.002280
    14  H    0.329952   0.459444  -0.031955  -0.000506  -0.000969  -0.000096
    15  H    0.313743  -0.031955   0.403068   0.008015  -0.001279  -0.001168
    16  N    0.025980  -0.000506   0.008015   6.898319   0.324714   0.391040
    17  H    0.007580  -0.000969  -0.001279   0.324714   0.416577  -0.033473
    18  H   -0.002280  -0.000096  -0.001168   0.391040  -0.033473   0.459127
    19  N    0.000023   0.000104   0.000019  -0.000127  -0.000023   0.000003
    20  H   -0.000066   0.000019  -0.000000  -0.000004  -0.000000   0.000000
    21  H    0.000018   0.000002  -0.000001   0.000003  -0.000001   0.000000
    22  N   -0.000019   0.000002   0.000004  -0.000478   0.000010  -0.000048
    23  H   -0.000010  -0.000000  -0.000000   0.000083   0.000005  -0.000001
    24  H    0.000010   0.000000   0.000001  -0.000158  -0.000005  -0.000010
              19         20         21         22         23         24
     1  C    0.027290  -0.027550   0.006690   0.006443  -0.000014   0.001710
     2  C    0.222489  -0.045364  -0.029626  -0.066899  -0.002044  -0.038449
     3  C   -0.121569   0.014139  -0.015763   0.234369  -0.074980  -0.080086
     4  C    0.015767   0.001969   0.002160  -0.142846  -0.008674   0.035881
     5  C    0.003575  -0.000328  -0.000490   0.009625   0.002975  -0.007287
     6  C   -0.019674  -0.000193   0.000326   0.000564   0.000395  -0.000302
     7  H    0.007419   0.001264   0.000666  -0.000263  -0.000049   0.000084
     8  H   -0.000278   0.000024  -0.000052   0.021026  -0.000826   0.001515
     9  H   -0.001646  -0.000082  -0.000045   0.001764   0.000074   0.001120
    10  H    0.001607   0.000419  -0.000106  -0.000059  -0.000008  -0.000099
    11  H   -0.000841  -0.000136  -0.000112   0.006959   0.003346  -0.001048
    12  H    0.001095   0.000537  -0.000348  -0.000130   0.000294  -0.000202
    13  N    0.000023  -0.000066   0.000018  -0.000019  -0.000010   0.000010
    14  H    0.000104   0.000019   0.000002   0.000002  -0.000000   0.000000
    15  H    0.000019  -0.000000  -0.000001   0.000004  -0.000000   0.000001
    16  N   -0.000127  -0.000004   0.000003  -0.000478   0.000083  -0.000158
    17  H   -0.000023  -0.000000  -0.000001   0.000010   0.000005  -0.000005
    18  H    0.000003   0.000000   0.000000  -0.000048  -0.000001  -0.000010
    19  N    6.727329   0.351090   0.333229   0.027682   0.000933   0.001151
    20  H    0.351090   0.412068  -0.026485  -0.000370  -0.000153   0.000016
    21  H    0.333229  -0.026485   0.366800   0.020185  -0.000719  -0.000438
    22  N    0.027682  -0.000370   0.020185   6.723940   0.360024   0.373834
    23  H    0.000933  -0.000153  -0.000719   0.360024   0.459453  -0.049459
    24  H    0.001151   0.000016  -0.000438   0.373834  -0.049459   0.458909
 Mulliken charges:
               1
     1  C   -0.586154
     2  C    0.236712
     3  C   -0.145379
     4  C   -0.311484
     5  C   -0.289152
     6  C   -0.110481
     7  H    0.168621
     8  H    0.153935
     9  H    0.202467
    10  H    0.199712
    11  H    0.154613
    12  H    0.226547
    13  N   -0.634666
    14  H    0.290175
    15  H    0.323210
    16  N   -0.605036
    17  H    0.314072
    18  H    0.288296
    19  N   -0.576646
    20  H    0.319185
    21  H    0.344107
    22  N   -0.575319
    23  H    0.309356
    24  H    0.303312
 Sum of Mulliken charges =  -0.00000
 Mulliken charges with hydrogens summed into heavy atoms:
               1
     1  C   -0.190987
     2  C    0.236712
     3  C   -0.145379
     4  C   -0.002936
     5  C   -0.086686
     6  C    0.089230
    13  N   -0.021280
    16  N   -0.002668
    19  N    0.086645
    22  N    0.037349
 APT charges:
               1
     1  C   -1.206230
     2  C    0.552444
     3  C   -0.031425
     4  C   -0.779319
     5  C   -0.258196
     6  C   -0.192329
     7  H    0.490183
     8  H    0.458572
     9  H    0.445767
    10  H    0.420220
    11  H    0.321462
    12  H    0.415973
    13  N   -1.522397
    14  H    0.668441
    15  H    0.712212
    16  N   -1.485452
    17  H    0.515605
    18  H    0.678417
    19  N   -1.402831
    20  H    0.707681
    21  H    0.721988
    22  N   -1.498857
    23  H    0.679263
    24  H    0.588810
 Sum of APT charges =  -0.00000
 APT charges with hydrogens summed into heavy atoms:
               1
     1  C   -0.300073
     2  C    0.552444
     3  C   -0.031425
     4  C    0.000715
     5  C    0.187570
     6  C    0.227891
    13  N   -0.141744
    16  N   -0.291430
    19  N    0.026838
    22  N   -0.230785
 Electronic spatial extent (au):  <R**2>=           1622.5085
 Charge=              0.0000 electrons
 Dipole moment (field-independent basis, Debye):
    X=             -0.6445    Y=             -0.0023    Z=              0.3402  Tot=              0.7288
 Quadrupole moment (field-independent basis, Debye-Ang):
   XX=            -63.5028   YY=            -50.5283   ZZ=            -64.9409
   XY=             -0.1320   XZ=             -0.6965   YZ=              1.6441
 Traceless Quadrupole moment (field-independent basis, Debye-Ang):
   XX=             -3.8455   YY=              9.1290   ZZ=             -5.2836
   XY=             -0.1320   XZ=             -0.6965   YZ=              1.6441
 Octapole moment (field-independent basis, Debye-Ang**2):
  XXX=            -12.7788  YYY=              4.3741  ZZZ=             -1.7006  XYY=             -5.0924
  XXY=              1.3988  XXZ=             -2.1337  XZZ=             -4.5371  YZZ=             -5.9967
  YYZ=              4.7533  XYZ=              0.7227
 Hexadecapole moment (field-independent basis, Debye-Ang**3):
 XXXX=          -1216.4139 YYYY=           -572.3557 ZZZZ=           -201.2488 XXXY=            -25.4876
 XXXZ=           -130.7866 YYYX=            -12.0886 YYYZ=            -12.5594 ZZZX=           -130.3633
 ZZZY=              2.4130 XXYY=           -242.3751 XXZZ=           -258.1667 YYZZ=           -142.9247
 XXYZ=             22.6483 YYXZ=            -31.2846 ZZXY=             13.1184
 N-N= 5.734366724847D+02 E-N=-2.208340138888D+03  KE= 4.537707295548D+02
  Exact polarizability:   0.000   0.000   0.000   0.000   0.000   0.000
 Approx polarizability: 109.734  -4.486 125.818  -0.886   0.049  93.617

 This type of calculation cannot be archived.


 HE WHO LAUGHS LAST PROBABLY DIDN'T GET THE JOKE.
 Job cpu time:       2 days  1 hours 32 minutes 44.8 seconds.
 Elapsed time:       0 days  3 hours  6 minutes 55.3 seconds.
 File lengths (MBytes):  RWF=    101 Int=      0 D2E=      0 Chk=      8 Scr=      1
 Normal termination of Gaussian 16 at Wed Apr 15 15:59:48 2020.
