 Entering Gaussian System, Link 0=g16
 Initial command:
 /opt/g16/l1.exe "/scratch/548/Gau-68736.inp" -scrdir="/scratch/548/"
 Entering Link 1 = /opt/g16/l1.exe PID=     68737.
  
 Copyright (c) 1988-2017, Gaussian, Inc.  All Rights Reserved.
  
 This is part of the Gaussian(R) 16 program.  It is based on
 the Gaussian(R) 09 system (copyright 2009, Gaussian, Inc.),
 the Gaussian(R) 03 system (copyright 2003, Gaussian, Inc.),
 the Gaussian(R) 98 system (copyright 1998, Gaussian, Inc.),
 the Gaussian(R) 94 system (copyright 1995, Gaussian, Inc.),
 the Gaussian 92(TM) system (copyright 1992, Gaussian, Inc.),
 the Gaussian 90(TM) system (copyright 1990, Gaussian, Inc.),
 the Gaussian 88(TM) system (copyright 1988, Gaussian, Inc.),
 the Gaussian 86(TM) system (copyright 1986, Carnegie Mellon
 University), and the Gaussian 82(TM) system (copyright 1983,
 Carnegie Mellon University). Gaussian is a federally registered
 trademark of Gaussian, Inc.
  
 This software contains proprietary and confidential information,
 including trade secrets, belonging to Gaussian, Inc.
  
 This software is provided under written license and may be
 used, copied, transmitted, or stored only in accord with that
 written license.
  
 The following legend is applicable only to US Government
 contracts under FAR:
  
                    RESTRICTED RIGHTS LEGEND
  
 Use, reproduction and disclosure by the US Government is
 subject to restrictions as set forth in subparagraphs (a)
 and (c) of the Commercial Computer Software - Restricted
 Rights clause in FAR 52.227-19.
  
 Gaussian, Inc.
 340 Quinnipiac St., Bldg. 40, Wallingford CT 06492
  
  
 ---------------------------------------------------------------
 Warning -- This program may not be used in any manner that
 competes with the business of Gaussian, Inc. or will provide
 assistance to any competitor of Gaussian, Inc.  The licensee
 of this program is prohibited from giving any competitor of
 Gaussian, Inc. access to this program.  By using this program,
 the user acknowledges that Gaussian, Inc. is engaged in the
 business of creating and licensing software in the field of
 computational chemistry and represents and warrants to the
 licensee that it is not a competitor of Gaussian, Inc. and that
 it will not use this program in any manner prohibited above.
 ---------------------------------------------------------------
  

 Cite this work as:
 Gaussian 16, Revision B.01,
 M. J. Frisch, G. W. Trucks, H. B. Schlegel, G. E. Scuseria, 
 M. A. Robb, J. R. Cheeseman, G. Scalmani, V. Barone, 
 G. A. Petersson, H. Nakatsuji, X. Li, M. Caricato, A. V. Marenich, 
 J. Bloino, B. G. Janesko, R. Gomperts, B. Mennucci, H. P. Hratchian, 
 J. V. Ortiz, A. F. Izmaylov, J. L. Sonnenberg, D. Williams-Young, 
 F. Ding, F. Lipparini, F. Egidi, J. Goings, B. Peng, A. Petrone, 
 T. Henderson, D. Ranasinghe, V. G. Zakrzewski, J. Gao, N. Rega, 
 G. Zheng, W. Liang, M. Hada, M. Ehara, K. Toyota, R. Fukuda, 
 J. Hasegawa, M. Ishida, T. Nakajima, Y. Honda, O. Kitao, H. Nakai, 
 T. Vreven, K. Throssell, J. A. Montgomery, Jr., J. E. Peralta, 
 F. Ogliaro, M. J. Bearpark, J. J. Heyd, E. N. Brothers, K. N. Kudin, 
 V. N. Staroverov, T. A. Keith, R. Kobayashi, J. Normand, 
 K. Raghavachari, A. P. Rendell, J. C. Burant, S. S. Iyengar, 
 J. Tomasi, M. Cossi, J. M. Millam, M. Klene, C. Adamo, R. Cammi, 
 J. W. Ochterski, R. L. Martin, K. Morokuma, O. Farkas, 
 J. B. Foresman, and D. J. Fox, Gaussian, Inc., Wallingford CT, 2016.
 
 ******************************************
 Gaussian 16:  ES64L-G16RevB.01 20-Dec-2017
                15-Apr-2020 
 ******************************************
 %nprocshared=16
 Will use up to   16 processors via shared memory.
 %mem=24GB
 %chk=dairc1-testr.chk
 ----------------------------------------------------------------------
 # M062X/ChkBasis NoSymm SCF=(NoVarAcc,XQC) Int=(Grid=Ultrafine,acc2e=1
 1) Geom=AllCheck Guess=Read IRC=(Reverse,CalcAll,Phase=(1,6),MaxPoints
 =300,StepSize=5)
 ----------------------------------------------------------------------
 1/10=4,18=10,22=2,26=4,29=7,38=1,39=5,42=300,44=3,71=1,101=1,102=6,172=1/1,23;
 2/12=2,15=1,29=1,40=1/2;
 3/5=7,6=2,11=2,14=-4,25=1,27=11,30=1,67=1,71=2,74=-55,75=-5,116=-2,140=1/1,2,3;
 4/5=1/1;
 5/5=2,8=3,13=1,38=6,87=11/2,8;
 8/6=4,10=90,11=11,87=11/1;
 11/6=1,8=1,9=11,15=111,16=1,31=1,87=11/1,2,10;
 10/6=1,13=1,31=1,87=11/2;
 6/7=2,8=2,9=2,10=2,18=1,28=1,87=11/1;
 7/10=1,25=1,30=1,87=11/1,2,3,16;
 1/10=4,18=10,22=2,26=4,39=5,42=300,44=3,71=1,101=1,102=6/23(2);
 2/15=1,29=1/2;
 99/5=20/99;
 2/15=1,29=1/2;
 3/5=7,6=1,11=2,14=-2,25=1,27=11,30=1,71=2,74=-55,75=-5,82=7,140=1/1,2,3;
 4/5=5,16=3,69=1/1;
 5/5=2,8=3,13=1,38=1,87=11/2,8;
 8/6=4,10=90,11=11,87=11/1;
 11/6=1,8=1,9=11,15=111,16=1,31=1,87=11/1,2,10;
 10/6=1,13=1,31=1,87=11/2;
 7/10=1,25=1,30=1,87=11/1,2,3,16;
 1/10=4,18=10,22=2,26=4,39=5,42=300,44=3,71=1,101=1,102=6/23(-8);
 2/15=1,29=1/2;
 6/7=2,8=2,9=2,10=2,18=1,19=2,28=1,87=11/1;
 99/5=20/99;
 Structure from the checkpoint file:  "dairc1-testr.chk"
 --------------------------------------------------------------
 Geometrical optimization for a DA reaction C2H4+C4H6 --> C6H10
 --------------------------------------------------------------
 Charge =  0 Multiplicity = 1
 Redundant internal coordinates found in file.  (old form).
 C,0,1.1481306431,1.2918300063,2.3207023291
 C,0,2.5086288961,1.347002839,2.5184452902
 C,0,3.208733885,2.5662806619,2.4896726725
 C,0,2.5662330245,3.7615406689,2.2624164278
 C,0,1.0850687677,3.8052953448,3.9582303788
 C,0,0.3979443453,2.6086116317,3.9864674658
 H,0,0.6125945656,0.3639944316,2.4713192826
 H,0,3.0191705961,0.4722999686,2.9018189636
 H,0,4.2291309064,2.5795228322,2.8520918437
 H,0,3.1002136609,4.6963403322,2.3690812209
 H,0,1.8774203932,3.9941723935,4.6661044336
 H,0,-0.6058637032,2.5495789113,3.5882762629
 H,0,0.6488996261,1.8546100544,4.7165938468
 H,0,0.6216906288,4.687459048,3.5378266702
 H,0,1.6875232298,3.8097104044,1.636538826
 H,0,0.6506595646,2.0039475212,1.6791533855
 Recover connectivity data from disk.
 IRC-IRC-IRC-IRC-IRC-IRC-IRC-IRC-IRC-IRC-IRC-IRC-IRC-IRC-IRC-IRC-IRC-IRC
 ------------------------------------------------------------------------
 INPUT DATA FOR L123
 ------------------------------------------------------------------------
 GENERAL PARAMETERS:
 Rxn path following direction = Reverse
 Maximum points per path      = 300
 Step size                    =   0.050 bohr
 Integration scheme           = HPC                                 
    Redo corrector integration= Yes                                 
    DWI Weight Power          =  2
    DWI will use Hessian update vectors when possible.
    Max correction cycles     =  20
 Initial Hessian              = CalcFC
 Hessian evaluation           = Analytic at all predictor steps
                              = Update at all corrector steps
 Hessian updating method      = Bofill                              
 ------------------------------------------------------------------------
 IRC-IRC-IRC-IRC-IRC-IRC-IRC-IRC-IRC-IRC-IRC-IRC-IRC-IRC-IRC-IRC-IRC-IRC
                          Input orientation:                          
 ---------------------------------------------------------------------
 Center     Atomic      Atomic             Coordinates (Angstroms)
 Number     Number       Type             X           Y           Z
 ---------------------------------------------------------------------
      1          6           0        1.148131    1.291830    2.320702
      2          6           0        2.508629    1.347003    2.518445
      3          6           0        3.208734    2.566281    2.489673
      4          6           0        2.566233    3.761541    2.262416
      5          6           0        1.085069    3.805295    3.958230
      6          6           0        0.397944    2.608612    3.986467
      7          1           0        0.612595    0.363994    2.471319
      8          1           0        3.019171    0.472300    2.901819
      9          1           0        4.229131    2.579523    2.852092
     10          1           0        3.100214    4.696340    2.369081
     11          1           0        1.877420    3.994172    4.666104
     12          1           0       -0.605864    2.549579    3.588276
     13          1           0        0.648900    1.854610    4.716594
     14          1           0        0.621691    4.687459    3.537827
     15          1           0        1.687523    3.809710    1.636539
     16          1           0        0.650660    2.003948    1.679153
 ---------------------------------------------------------------------
                    Distance matrix (angstroms):
                    1          2          3          4          5
     1  C    0.000000
     2  C    1.375900   0.000000
     3  C    2.428757   1.406276   0.000000
     4  C    2.848488   2.428757   1.375899   0.000000
     5  C    3.000497   3.184762   2.863874   2.252010   0.000000
     6  C    2.251992   2.863867   3.184764   3.000512   1.380213
     7  H    1.081833   2.136229   3.404459   3.924750   3.778451
     8  H    2.123703   1.082928   2.142558   3.381286   3.995699
     9  H    3.381285   2.142558   1.082928   2.123703   3.551223
    10  H    3.924750   3.404459   2.136229   1.081833   2.716646
    11  H    3.651771   3.466752   2.923718   2.511234   1.079158
    12  H    2.503033   3.505823   3.969681   3.645402   2.138444
    13  H    2.511225   2.923716   3.466757   3.651786   2.137880
    14  H    3.645384   3.969675   3.505826   2.503046   1.081513
    15  H    2.664347   2.741697   2.141970   1.079895   2.398588
    16  H    1.079895   2.141970   2.741697   2.664348   2.937304
                    6          7          8          9         10
     6  C    0.000000
     7  H    2.716626   0.000000
     8  H    3.551213   2.447176   0.000000
     9  H    3.995703   4.258273   2.430404   0.000000
    10  H    3.778466   4.996791   4.258274   2.447176   0.000000
    11  H    2.137881   4.426631   4.101205   3.289744   2.695288
    12  H    1.081514   2.740258   4.234051   4.890811   4.453092
    13  H    1.079158   2.695276   3.289738   4.101210   4.426645
    14  H    2.138445   4.453074   4.890806   4.234059   2.740278
    15  H    2.937315   3.704766   3.809531   3.074199   1.821655
    16  H    2.398579   1.821654   3.074199   3.809531   3.704766
                   11         12         13         14         15
    11  H    0.000000
    12  H    3.068430   0.000000
    13  H    2.467699   1.824969   0.000000
    14  H    1.824970   2.465759   3.068431   0.000000
    15  H    3.041111   3.264481   3.793138   2.349753   0.000000
    16  H    3.793127   2.349748   3.041110   3.264466   2.082710
                   16
    16  H    0.000000
 Symmetry turned off by external request.
 Stoichiometry    C6H10
 Framework group  C1[X(C6H10)]
 Deg. of freedom    42
 Full point group                 C1      NOp   1
 Rotational constants (GHZ):           4.3811163           3.5293930           2.3019056
 Basis read from chk: "dairc1-testr.chk" (5D, 7F)
 Pseudo-potential data read from chk file.
   114 basis functions,   224 primitive gaussians,   114 cartesian basis functions
    23 alpha electrons       23 beta electrons
       nuclear repulsion energy       225.5323325021 Hartrees.
 NAtoms=   16 NActive=   16 NUniq=   16 SFac= 1.00D+00 NAtFMM=   60 NAOKFM=F Big=F
 Integral buffers will be    131072 words long.
 Raffenetti 2 integral format.
 Two-electron integral symmetry is turned off.
 One-electron integrals computed using PRISM.
   1 Symmetry operations used in ECPInt.
 ECPInt:  NShTT=    3081 NPrTT=   11790 LenC2=    3049 LenP2D=    9034.
 LDataN:  DoStor=T MaxTD1= 2 Len=   12
 NBasis=   114 RedAO= T EigKep=  8.37D-05  NBF=   114
 NBsUse=   114 1.00D-06 EigRej= -1.00D+00 NBFU=   114
 Initial guess from the checkpoint file:  "dairc1-testr.chk"
 B after Tr=     3.341113    4.900758    5.571998
         Rot=    0.269790    0.250331    0.927756    0.061775 Ang= 148.70 deg.
 Requested convergence on RMS density matrix=1.00D-08 within  32 cycles.
 Requested convergence on MAX density matrix=1.00D-06.
 Requested convergence on             energy=1.00D-06.
 No special actions if energy rises.
 SCF Done:  E(RM062X) =  -234.433257572     A.U. after    5 cycles
            NFock=  5  Conv=0.47D-08     -V/T= 2.0046
 QCSCF skips out because SCF is already converged.
 DoSCS=F DFT=T ScalE2(SS,OS)=  1.000000  1.000000
 Range of M.O.s used for correlation:     1   114
 NBasis=   114 NAE=    23 NBE=    23 NFC=     0 NFV=     0
 NROrb=    114 NOA=    23 NOB=    23 NVA=    91 NVB=    91

 **** Warning!!: The largest alpha MO coefficient is  0.30727468D+02

   1 Symmetry operations used in ECPInt.
 ECPInt:  NShTT=    3081 NPrTT=   11790 LenC2=    3049 LenP2D=    9034.
 LDataN:  DoStor=T MaxTD1= 3 Len=   28
 Symmetrizing basis deriv contribution to polar:
 IMax=3 JMax=2 DiffMx= 0.00D+00
 G2DrvN: will do    17 centers at a time, making    1 passes.
 Calling FoFCou, ICntrl=  3107 FMM=F I1Cent=   0 AccDes= 1.00D-11.
 End of G2Drv F.D. properties file   721 does not exist.
 End of G2Drv F.D. properties file   722 does not exist.
 End of G2Drv F.D. properties file   788 does not exist.
          IDoAtm=1111111111111111
          Differentiating once with respect to nuclear coordinates.
 Keep R1 ints in memory in canonical form, NReq=36494925.
          There are    51 degrees of freedom in the 1st order CPHF.  IDoFFX=6 NUNeed=     0.
     45 vectors produced by pass  0 Test12= 4.10D-15 1.96D-09 XBig12= 7.28D-02 9.74D-02.
 AX will form    45 AO Fock derivatives at one time.
     45 vectors produced by pass  1 Test12= 4.10D-15 1.96D-09 XBig12= 7.43D-03 1.94D-02.
     45 vectors produced by pass  2 Test12= 4.10D-15 1.96D-09 XBig12= 8.36D-05 1.49D-03.
     45 vectors produced by pass  3 Test12= 4.10D-15 1.96D-09 XBig12= 4.27D-07 1.05D-04.
     45 vectors produced by pass  4 Test12= 4.10D-15 1.96D-09 XBig12= 1.40D-09 4.68D-06.
     45 vectors produced by pass  5 Test12= 4.10D-15 1.96D-09 XBig12= 3.62D-12 2.48D-07.
     16 vectors produced by pass  6 Test12= 4.10D-15 1.96D-09 XBig12= 1.12D-14 1.39D-08.
 InvSVY:  IOpt=1 It=  1 EMax= 1.67D-16
 Solved reduced A of dimension   286 with    51 vectors.
 End of Minotr F.D. properties file   721 does not exist.
 End of Minotr F.D. properties file   722 does not exist.
 End of Minotr F.D. properties file   788 does not exist.

 **********************************************************************

            Population analysis using the SCF Density.

 **********************************************************************

 Alpha  occ. eigenvalues --  -10.54609 -10.54608 -10.54011 -10.53928 -10.53580
 Alpha  occ. eigenvalues --  -10.53510  -0.91703  -0.84819  -0.81765  -0.71161
 Alpha  occ. eigenvalues --   -0.66626  -0.59905  -0.57238  -0.54162  -0.50170
 Alpha  occ. eigenvalues --   -0.47766  -0.47542  -0.43142  -0.42111  -0.41198
 Alpha  occ. eigenvalues --   -0.40434  -0.27991  -0.27822
 Alpha virt. eigenvalues --    0.01214   0.04267   0.07813   0.09714   0.10729
 Alpha virt. eigenvalues --    0.12839   0.13488   0.13554   0.14848   0.15317
 Alpha virt. eigenvalues --    0.17087   0.18391   0.22503   0.22938   0.23097
 Alpha virt. eigenvalues --    0.24765   0.26325   0.27349   0.27892   0.27983
 Alpha virt. eigenvalues --    0.28372   0.30763   0.34662   0.35762   0.36251
 Alpha virt. eigenvalues --    0.36943   0.38138   0.40554   0.43243   0.44455
 Alpha virt. eigenvalues --    0.45897   0.46413   0.46514   0.47148   0.48034
 Alpha virt. eigenvalues --    0.48548   0.50179   0.52653   0.54222   0.54278
 Alpha virt. eigenvalues --    0.57798   0.57836   0.59159   0.60947   0.63285
 Alpha virt. eigenvalues --    0.64055   0.67956   0.69263   0.70316   0.78998
 Alpha virt. eigenvalues --    0.82378   1.41810   1.45748   1.47729   1.48314
 Alpha virt. eigenvalues --    1.51665   1.53693   1.54969   1.56104   1.57248
 Alpha virt. eigenvalues --    1.58551   1.58722   1.59967   1.61311   1.62252
 Alpha virt. eigenvalues --    1.63202   1.67314   1.67373   1.71943   1.78291
 Alpha virt. eigenvalues --    1.83632   1.83840   1.94733   2.01416   2.05028
 Alpha virt. eigenvalues --    2.33898   2.35825   2.36784   2.41930   2.43895
 Alpha virt. eigenvalues --    2.47691   2.53894   2.60028   2.68694   2.78493
 Alpha virt. eigenvalues --   21.41447  21.63477  21.74093  22.00018  22.10574
 Alpha virt. eigenvalues --   22.26692
          Condensed to atoms (all electrons):
               1          2          3          4          5          6
     1  C    5.275667   0.579778  -0.103916  -0.011847  -0.065673   0.082996
     2  C    0.579778   4.958150   0.479383  -0.103920  -0.072896  -0.029376
     3  C   -0.103916   0.479383   4.958195   0.579820  -0.029369  -0.072889
     4  C   -0.011847  -0.103920   0.579820   5.275564   0.082987  -0.065659
     5  C   -0.065673  -0.072896  -0.029369   0.082987   5.290162   0.532121
     6  C    0.082996  -0.029376  -0.072889  -0.065659   0.532121   5.290203
     7  H    0.358763  -0.025507   0.015501   0.002058   0.005935  -0.010859
     8  H   -0.041826   0.377865  -0.042465   0.006081  -0.001251  -0.001512
     9  H    0.006082  -0.042452   0.377847  -0.041824  -0.001511  -0.001251
    10  H    0.002059   0.015503  -0.025517   0.358765  -0.010860   0.005935
    11  H    0.002407  -0.003970   0.003122  -0.015553   0.373865  -0.021783
    12  H   -0.030159  -0.001840   0.006606   0.002910  -0.039295   0.387853
    13  H   -0.015563   0.003120  -0.003971   0.002408  -0.021781   0.373864
    14  H    0.002910   0.006606  -0.001843  -0.030159   0.387852  -0.039293
    15  H    0.015178  -0.023559  -0.023836   0.393563  -0.038750  -0.019783
    16  H    0.393556  -0.023842  -0.023559   0.015186  -0.019781  -0.038755
               7          8          9         10         11         12
     1  C    0.358763  -0.041826   0.006082   0.002059   0.002407  -0.030159
     2  C   -0.025507   0.377865  -0.042452   0.015503  -0.003970  -0.001840
     3  C    0.015501  -0.042465   0.377847  -0.025517   0.003122   0.006606
     4  C    0.002058   0.006081  -0.041824   0.358765  -0.015553   0.002910
     5  C    0.005935  -0.001251  -0.001511  -0.010860   0.373865  -0.039295
     6  C   -0.010859  -0.001512  -0.001251   0.005935  -0.021783   0.387853
     7  H    0.514336  -0.010692  -0.000066  -0.000079  -0.000018   0.002658
     8  H   -0.010692   0.545694  -0.008476  -0.000066  -0.000147  -0.000329
     9  H   -0.000066  -0.008476   0.545698  -0.010692   0.001945   0.000128
    10  H   -0.000079  -0.000066  -0.010692   0.514357  -0.002921  -0.000335
    11  H   -0.000018  -0.000147   0.001945  -0.002921   0.512673   0.006335
    12  H    0.002658  -0.000329   0.000128  -0.000335   0.006335   0.513403
    13  H   -0.002921   0.001946  -0.000147  -0.000018  -0.009220  -0.028195
    14  H   -0.000335   0.000128  -0.000329   0.002659  -0.028194  -0.009500
    15  H    0.000297  -0.000078   0.006329  -0.030357   0.005734   0.002813
    16  H   -0.030349   0.006328  -0.000079   0.000297  -0.000126  -0.005897
              13         14         15         16
     1  C   -0.015563   0.002910   0.015178   0.393556
     2  C    0.003120   0.006606  -0.023559  -0.023842
     3  C   -0.003971  -0.001843  -0.023836  -0.023559
     4  C    0.002408  -0.030159   0.393563   0.015186
     5  C   -0.021781   0.387852  -0.038750  -0.019781
     6  C    0.373864  -0.039293  -0.019783  -0.038755
     7  H   -0.002921  -0.000335   0.000297  -0.030349
     8  H    0.001946   0.000128  -0.000078   0.006328
     9  H   -0.000147  -0.000329   0.006329  -0.000079
    10  H   -0.000018   0.002659  -0.030357   0.000297
    11  H   -0.009220  -0.028194   0.005734  -0.000126
    12  H   -0.028195  -0.009500   0.002813  -0.005897
    13  H    0.512676   0.006334  -0.000126   0.005734
    14  H    0.006334   0.513410  -0.005897   0.002813
    15  H   -0.000126  -0.005897   0.529029  -0.007034
    16  H    0.005734   0.002813  -0.007034   0.529014
 Mulliken charges:
               1
     1  C   -0.450413
     2  C   -0.093041
     3  C   -0.093108
     4  C   -0.450378
     5  C   -0.371755
     6  C   -0.371812
     7  H    0.181278
     8  H    0.168799
     9  H    0.168796
    10  H    0.181270
    11  H    0.175851
    12  H    0.192846
    13  H    0.175858
    14  H    0.192838
    15  H    0.196478
    16  H    0.196493
 Sum of Mulliken charges =  -0.00000
 Mulliken charges with hydrogens summed into heavy atoms:
               1
     1  C   -0.072641
     2  C    0.075758
     3  C    0.075688
     4  C   -0.072630
     5  C   -0.003066
     6  C   -0.003108
 APT charges:
               1
     1  C   -0.571125
     2  C   -0.441696
     3  C   -0.637377
     4  C   -0.659751
     5  C   -1.347188
     6  C   -0.945213
     7  H    0.183778
     8  H    0.472268
     9  H    0.902434
    10  H    1.110238
    11  H    0.937080
    12  H   -0.043816
    13  H    0.442429
    14  H    0.449545
    15  H   -0.132834
    16  H    0.281228
 Sum of APT charges =  -0.00000
 APT charges with hydrogens summed into heavy atoms:
               1
     1  C   -0.106119
     2  C    0.030572
     3  C    0.265057
     4  C    0.317653
     5  C    0.039437
     6  C   -0.546600
 Electronic spatial extent (au):  <R**2>=           3654.5262
 Charge=              0.0000 electrons
 Dipole moment (field-independent basis, Debye):
    X=             -0.3470    Y=              0.2055    Z=              0.2670  Tot=              0.4837
 Quadrupole moment (field-independent basis, Debye-Ang):
   XX=            -39.2562   YY=            -35.9896   ZZ=            -40.7470
   XY=              0.4536   XZ=              2.7224   YZ=             -0.7200
 Traceless Quadrupole moment (field-independent basis, Debye-Ang):
   XX=             -0.5919   YY=              2.6746   ZZ=             -2.0827
   XY=              0.4536   XZ=              2.7224   YZ=             -0.7200
 Octapole moment (field-independent basis, Debye-Ang**2):
  XXX=           -203.7636  YYY=           -283.7442  ZZZ=           -364.8444  XYY=            -60.3736
  XXY=            -98.8847  XXZ=           -103.5067  XZZ=            -56.7782  YZZ=           -115.2448
  YYZ=           -113.3495  XYZ=              8.8357
 Hexadecapole moment (field-independent basis, Debye-Ang**3):
 XXXX=          -1025.2907 YYYY=          -1797.5435 ZZZZ=          -2364.7871 XXXY=           -525.1963
 XXXZ=           -499.2308 YYYX=           -483.8044 YYYZ=           -900.2518 ZZZX=           -504.2608
 ZZZY=          -1029.2339 XXYY=           -468.3449 XXZZ=           -504.5463 YYZZ=           -734.3697
 XXYZ=           -275.5698 YYXZ=           -138.1992 ZZXY=           -144.1257
 N-N= 2.255323325021D+02 E-N=-9.937248987609D+02  KE= 2.333521246293D+02
  Exact polarizability:   0.000   0.000   0.000   0.000   0.000   0.000
 Approx polarizability: 104.521   3.737 109.558 -12.734   6.415  73.585
   1 Symmetry operations used in ECPInt.
 ECPInt:  NShTT=    3081 NPrTT=   11790 LenC2=    3049 LenP2D=    9034.
 LDataN:  DoStor=T MaxTD1= 4 Len=   56
 Calling FoFJK, ICntrl=    100127 FMM=F ISym2X=0 I1Cent= 0 IOpClX= 0 NMat=1 NMatS=1 NMatT=0.
 -------------------------------------------------------------------
 Center     Atomic                   Forces (Hartrees/Bohr)
 Number     Number              X              Y              Z
 -------------------------------------------------------------------
      1        6           0.000009140    0.000015318    0.000008464
      2        6          -0.000039613   -0.000001688    0.000012077
      3        6          -0.000005091   -0.000012658   -0.000022745
      4        6           0.000025604   -0.000016165   -0.000014033
      5        6           0.000016481    0.000042453    0.000013375
      6        6          -0.000007632   -0.000023668    0.000000663
      7        1           0.000002199   -0.000001750   -0.000008841
      8        1           0.000001215    0.000005454    0.000010824
      9        1          -0.000005577   -0.000003994    0.000018418
     10        1          -0.000005189   -0.000000583   -0.000010650
     11        1           0.000012565   -0.000000432    0.000001335
     12        1          -0.000005594    0.000006067   -0.000005723
     13        1           0.000000893   -0.000010521   -0.000007854
     14        1          -0.000002133   -0.000009883   -0.000014166
     15        1          -0.000008703    0.000002217    0.000001918
     16        1           0.000011435    0.000009833    0.000016937
 -------------------------------------------------------------------
 Cartesian Forces:  Max     0.000042453 RMS     0.000013612
 IRC-IRC-IRC-IRC-IRC-IRC-IRC-IRC-IRC-IRC-IRC-IRC-IRC-IRC-IRC-IRC-IRC-IRC
          ******** Start new reaction path calculation ********
 Setting the phase of the TS vector:      1      6      0      0
 Supplied step size of   0.0500 bohr.
    Integration on MW PES will use step size of   0.1457 sqrt(amu)*bohr.
 Point Number:   0          Path Number:   1
 Calculating another point on the path.
 IRC-IRC-IRC-IRC-IRC-IRC-IRC-IRC-IRC-IRC-IRC-IRC-IRC-IRC-IRC-IRC-IRC-IRC
                          Input orientation:                          
 ---------------------------------------------------------------------
 Center     Atomic      Atomic             Coordinates (Angstroms)
 Number     Number       Type             X           Y           Z
 ---------------------------------------------------------------------
      1          6           0       -0.646346   -1.282465   -0.609066
      2          6           0        0.719651   -1.231672   -0.418170
      3          6           0        1.417691   -0.015983   -0.446849
      4          6           0        0.768797    1.182051   -0.667249
      5          6           0       -0.697978    1.223926    1.012592
      6          6           0       -1.387967    0.022252    1.040945
      7          1           0       -1.180022   -2.211989   -0.461407
      8          1           0        1.229464   -2.108699   -0.039190
      9          1           0        2.439639   -0.001091   -0.088922
     10          1           0        1.305097    2.115997   -0.563548
     11          1           0        0.085033    1.414298    1.730717
     12          1           0       -2.396588   -0.029240    0.653481
     13          1           0       -1.142804   -0.724072    1.781176
     14          1           0       -1.170089    2.106829    0.603096
     15          1           0       -0.100893    1.229404   -1.306319
     16          1           0       -1.138815   -0.578235   -1.263699
 ---------------------------------------------------------------------
                    Distance matrix (angstroms):
                    1          2          3          4          5
     1  C    0.000000
     2  C    1.380206   0.000000
     3  C    2.427043   1.402135   0.000000
     4  C    2.842508   2.427038   1.380190   0.000000
     5  C    2.985706   3.175959   2.853664   2.230481   0.000000
     6  C    2.230432   2.853664   3.175958   2.985748   1.385969
     7  H    1.081955   2.138141   3.401583   3.919154   3.769688
     8  H    2.127459   1.082918   2.140345   3.381672   3.990948
     9  H    3.381682   2.140349   1.082918   2.127440   3.543817
    10  H    3.919151   3.401583   2.138138   1.081955   2.700430
    11  H    3.644452   3.467220   2.926341   2.504338   1.079375
    12  H    2.495586   3.507880   3.969839   3.637473   2.141182
    13  H    2.504303   2.926349   3.467220   3.644490   2.140861
    14  H    3.637439   3.969848   3.507894   2.495650   1.081709
    15  H    2.663300   2.742079   2.143776   1.080284   2.394554
    16  H    1.080283   2.143781   2.742097   2.663333   2.936600
                    6          7          8          9         10
     6  C    0.000000
     7  H    2.700395   0.000000
     8  H    3.543809   2.448378   0.000000
     9  H    3.990954   4.257788   2.430845   0.000000
    10  H    3.769717   4.991764   4.257785   2.448370   0.000000
    11  H    2.140866   4.422186   4.105338   3.295236   2.691578
    12  H    1.081709   2.736312   4.237003   4.892959   4.448109
    13  H    1.079373   2.691553   3.295235   4.105346   4.422210
    14  H    2.141179   4.448084   4.892961   4.237022   2.736364
    15  H    2.936567   3.704265   3.810302   3.074163   1.820594
    16  H    2.394586   1.820583   3.074165   3.810319   3.704295
                   11         12         13         14         15
    11  H    0.000000
    12  H    3.066379   0.000000
    13  H    2.466325   1.823859   0.000000
    14  H    1.823858   2.463662   3.066369   0.000000
    15  H    3.048334   3.270354   3.799246   2.357736   0.000000
    16  H    3.799278   2.357746   3.048368   3.270393   2.084864
                   16
    16  H    0.000000
 Symmetry turned off by external request.
 Stoichiometry    C6H10
 Framework group  C1[X(C6H10)]
 Deg. of freedom    42
 Full point group                 C1      NOp   1
 Rotational constants (GHZ):           4.3918443           3.5544165           2.3139188
 Basis read from rwf:  (5D, 7F)
 Pseudo-potential data read from rwf file.
   114 basis functions,   224 primitive gaussians,   114 cartesian basis functions
    23 alpha electrons       23 beta electrons
       nuclear repulsion energy       225.7899921080 Hartrees.
 NAtoms=   16 NActive=   16 NUniq=   16 SFac= 1.00D+00 NAtFMM=   60 NAOKFM=F Big=F
 Integral buffers will be    131072 words long.
 Raffenetti 2 integral format.
 Two-electron integral symmetry is turned off.
 One-electron integrals computed using PRISM.
   1 Symmetry operations used in ECPInt.
 ECPInt:  NShTT=    3081 NPrTT=   11790 LenC2=    3051 LenP2D=    9044.
 LDataN:  DoStor=T MaxTD1= 2 Len=   12
 NBasis=   114 RedAO= T EigKep=  8.14D-05  NBF=   114
 NBsUse=   114 1.00D-06 EigRej= -1.00D+00 NBFU=   114
 Initial guess from the checkpoint file:  "dairc1-testr.chk"
 B after Tr=    -3.383624   -4.875845   -5.550664
         Rot=    1.000000   -0.000017   -0.000029    0.000000 Ang=  -0.00 deg.
 ExpMin= 9.52D-02 ExpMax= 1.36D+04 ExpMxC= 4.63D+02 IAcc=3 IRadAn=         5 AccDes= 0.00D+00
 Harris functional with IExCor= 1009 and IRadAn=       5 diagonalized for initial guess.
 HarFok:  IExCor= 1009 AccDes= 0.00D+00 IRadAn=         5 IDoV= 1 UseB2=F ITyADJ=14
 ICtDFT=  3500011 ScaDFX=  1.000000  1.000000  1.000000  1.000000
 FoFCou: FMM=F IPFlag=           0 FMFlag=      100000 FMFlg1=           0
         NFxFlg=           0 DoJE=T BraDBF=F KetDBF=T FulRan=T
         wScrn=  0.000000 ICntrl=       500 IOpCl=  0 I1Cent=   200000004 NGrid=           0
         NMat0=    1 NMatS0=      1 NMatT0=    0 NMatD0=    1 NMtDS0=    0 NMtDT0=    0
 Symmetry not used in FoFCou.
 Requested convergence on RMS density matrix=1.00D-08 within  32 cycles.
 Requested convergence on MAX density matrix=1.00D-06.
 Requested convergence on             energy=1.00D-06.
 No special actions if energy rises.
 SCF Done:  E(RM062X) =  -234.433379549     A.U. after   10 cycles
            NFock= 10  Conv=0.27D-08     -V/T= 2.0047
 QCSCF skips out because SCF is already converged.
 DoSCS=F DFT=T ScalE2(SS,OS)=  1.000000  1.000000
 Range of M.O.s used for correlation:     1   114
 NBasis=   114 NAE=    23 NBE=    23 NFC=     0 NFV=     0
 NROrb=    114 NOA=    23 NOB=    23 NVA=    91 NVB=    91

 **** Warning!!: The largest alpha MO coefficient is  0.29715781D+02

   1 Symmetry operations used in ECPInt.
 ECPInt:  NShTT=    3081 NPrTT=   11790 LenC2=    3051 LenP2D=    9044.
 LDataN:  DoStor=T MaxTD1= 3 Len=   28
 Symmetrizing basis deriv contribution to polar:
 IMax=3 JMax=2 DiffMx= 0.00D+00
 G2DrvN: will do    17 centers at a time, making    1 passes.
 Calling FoFCou, ICntrl=  3107 FMM=F I1Cent=   0 AccDes= 1.00D-11.
 End of G2Drv F.D. properties file   721 does not exist.
 End of G2Drv F.D. properties file   722 does not exist.
 End of G2Drv F.D. properties file   788 does not exist.
          IDoAtm=1111111111111111
          Differentiating once with respect to nuclear coordinates.
 Keep R1 ints in memory in canonical form, NReq=36494925.
          There are    51 degrees of freedom in the 1st order CPHF.  IDoFFX=6 NUNeed=     0.
     45 vectors produced by pass  0 Test12= 4.10D-15 1.96D-09 XBig12= 7.31D-02 9.88D-02.
 AX will form    45 AO Fock derivatives at one time.
     45 vectors produced by pass  1 Test12= 4.10D-15 1.96D-09 XBig12= 7.39D-03 1.98D-02.
     45 vectors produced by pass  2 Test12= 4.10D-15 1.96D-09 XBig12= 8.34D-05 1.48D-03.
     45 vectors produced by pass  3 Test12= 4.10D-15 1.96D-09 XBig12= 4.27D-07 9.79D-05.
     45 vectors produced by pass  4 Test12= 4.10D-15 1.96D-09 XBig12= 1.39D-09 4.63D-06.
     45 vectors produced by pass  5 Test12= 4.10D-15 1.96D-09 XBig12= 3.59D-12 2.53D-07.
     15 vectors produced by pass  6 Test12= 4.10D-15 1.96D-09 XBig12= 1.11D-14 1.34D-08.
 InvSVY:  IOpt=1 It=  1 EMax= 2.22D-16
 Solved reduced A of dimension   285 with    51 vectors.
 End of Minotr F.D. properties file   721 does not exist.
 End of Minotr F.D. properties file   722 does not exist.
 End of Minotr F.D. properties file   788 does not exist.
   1 Symmetry operations used in ECPInt.
 ECPInt:  NShTT=    3081 NPrTT=   11790 LenC2=    3051 LenP2D=    9044.
 LDataN:  DoStor=T MaxTD1= 4 Len=   56
 Calling FoFJK, ICntrl=    100127 FMM=F ISym2X=0 I1Cent= 0 IOpClX= 0 NMat=1 NMatS=1 NMatT=0.
 -------------------------------------------------------------------
 Center     Atomic                   Forces (Hartrees/Bohr)
 Number     Number              X              Y              Z
 -------------------------------------------------------------------
      1        6          -0.001212872    0.001657371    0.001947128
      2        6           0.000366201    0.000422269    0.000217660
      3        6          -0.000162402   -0.000573381    0.000206501
      4        6          -0.001963532    0.000277835    0.001948773
      5        6           0.002019994   -0.000030947   -0.002179346
      6        6           0.001019189   -0.001788774   -0.002149448
      7        1          -0.000043151    0.000089149    0.000081312
      8        1           0.000014709   -0.000007771   -0.000086542
      9        1           0.000010329   -0.000012206   -0.000078841
     10        1          -0.000105000   -0.000004427    0.000081278
     11        1          -0.000079376   -0.000005829    0.000016495
     12        1           0.000032363    0.000054273    0.000076571
     13        1          -0.000040198    0.000071221    0.000006360
     14        1          -0.000024359   -0.000061565    0.000070920
     15        1           0.000104745    0.000004031   -0.000088801
     16        1           0.000063361   -0.000091249   -0.000070020
 -------------------------------------------------------------------
 Cartesian Forces:  Max     0.002179346 RMS     0.000845376
 IRC-IRC-IRC-IRC-IRC-IRC-IRC-IRC-IRC-IRC-IRC-IRC-IRC-IRC-IRC-IRC-IRC-IRC
 Pt  1 Step number   1 out of a maximum of  20
 Modified Bulirsch-Stoer Extrapolation Cycles:
    EPS =    0.000010000000000
      PEZero:  N= 2 I= 1 D=  3.79D-04 Err=  4.24D-04
      PEZero:  N= 3 I= 2 D=  3.79D-04 Err=  2.83D-04
      PEZero:  N= 3 I= 1 D=  7.59D-04 Err=  6.94D-08
 Maximum DWI energy   std dev =  0.000000183 at pt    68
 Maximum DWI gradient std dev =  0.062095817 at pt     1
 CORRECTOR INTEGRATION CONVERGENCE:
   Recorrection delta-x convergence threshold:    0.010000
   Delta-x Convergence Met
 Point Number:   1          Path Number:   1
   CHANGE IN THE REACTION COORDINATE =    0.14571
   NET REACTION COORDINATE UP TO THIS POINT =    0.14571
  # OF POINTS ALONG THE PATH =   1
  # OF STEPS =   1

 Calculating another point on the path.
 IRC-IRC-IRC-IRC-IRC-IRC-IRC-IRC-IRC-IRC-IRC-IRC-IRC-IRC-IRC-IRC-IRC-IRC
                          Input orientation:                          
 ---------------------------------------------------------------------
 Center     Atomic      Atomic             Coordinates (Angstroms)
 Number     Number       Type             X           Y           Z
 ---------------------------------------------------------------------
      1          6           0       -0.650712   -1.276405   -0.601555
      2          6           0        0.720997   -1.230061   -0.417365
      3          6           0        1.416996   -0.018056   -0.446036
      4          6           0        0.761653    1.182982   -0.659771
      5          6           0       -0.690630    1.223199    1.004298
      6          6           0       -1.383789    0.016054    1.032769
      7          1           0       -1.182232   -2.207889   -0.457506
      8          1           0        1.230105   -2.109508   -0.043134
      9          1           0        2.440533   -0.001525   -0.092806
     10          1           0        1.300665    2.115905   -0.559588
     11          1           0        0.082752    1.414801    1.732721
     12          1           0       -2.397138   -0.027309    0.656375
     13          1           0       -1.144394   -0.722235    1.783122
     14          1           0       -1.171856    2.106452    0.605948
     15          1           0       -0.098556    1.229518   -1.312132
     16          1           0       -1.137803   -0.580287   -1.269236
 ---------------------------------------------------------------------
                    Distance matrix (angstroms):
                    1          2          3          4          5
     1  C    0.000000
     2  C    1.384796   0.000000
     3  C    2.425498   1.397924   0.000000
     4  C    2.836679   2.425529   1.384792   0.000000
     5  C    2.971259   3.167381   2.843637   2.209043   0.000000
     6  C    2.208816   2.843556   3.167399   2.971419   1.392292
     7  H    1.082093   2.140102   3.398747   3.913771   3.761769
     8  H    2.131517   1.082898   2.138090   3.382334   3.986637
     9  H    3.382298   2.138093   1.082901   2.131465   3.536633
    10  H    3.913745   3.398784   2.140145   1.082089   2.684757
    11  H    3.637226   3.467784   2.929210   2.497732   1.079552
    12  H    2.488501   3.510313   3.970266   3.629740   2.144059
    13  H    2.497501   2.929115   3.467813   3.637388   2.144103
    14  H    3.629515   3.970187   3.510322   2.488634   1.081849
    15  H    2.662601   2.742590   2.145567   1.080602   2.390908
    16  H    1.080572   2.145467   2.742400   2.662424   2.936235
                    6          7          8          9         10
     6  C    0.000000
     7  H    2.684672   0.000000
     8  H    3.536668   2.449643   0.000000
     9  H    3.986560   4.257402   2.431296   0.000000
    10  H    3.761817   4.987022   4.257443   2.449632   0.000000
    11  H    2.144101   4.418276   4.109846   3.301161   2.688780
    12  H    1.081864   2.733433   4.240490   4.895406   4.443611
    13  H    1.079541   2.688682   3.301209   4.109773   4.418330
    14  H    2.144028   4.443487   4.895411   4.240423   2.733482
    15  H    2.936474   3.704120   3.811140   3.073954   1.819292
    16  H    2.390681   1.819331   3.073895   3.810963   3.703941
                   11         12         13         14         15
    11  H    0.000000
    12  H    3.063994   0.000000
    13  H    2.464823   1.822593   0.000000
    14  H    1.822646   2.461056   3.063978   0.000000
    15  H    3.055869   3.276907   3.805747   2.366436   0.000000
    16  H    3.805506   2.366366   3.055663   3.276590   2.087407
                   16
    16  H    0.000000
 Symmetry turned off by external request.
 Stoichiometry    C6H10
 Framework group  C1[X(C6H10)]
 Deg. of freedom    42
 Full point group                 C1      NOp   1
 Rotational constants (GHZ):           4.4019245           3.5790379           2.3256073
 Basis read from rwf:  (5D, 7F)
 Pseudo-potential data read from rwf file.
   114 basis functions,   224 primitive gaussians,   114 cartesian basis functions
    23 alpha electrons       23 beta electrons
       nuclear repulsion energy       226.0340942045 Hartrees.
 NAtoms=   16 NActive=   16 NUniq=   16 SFac= 1.00D+00 NAtFMM=   60 NAOKFM=F Big=F
 Integral buffers will be    131072 words long.
 Raffenetti 2 integral format.
 Two-electron integral symmetry is turned off.
 One-electron integrals computed using PRISM.
   1 Symmetry operations used in ECPInt.
 ECPInt:  NShTT=    3081 NPrTT=   11790 LenC2=    3051 LenP2D=    9046.
 LDataN:  DoStor=T MaxTD1= 2 Len=   12
 NBasis=   114 RedAO= T EigKep=  7.92D-05  NBF=   114
 NBsUse=   114 1.00D-06 EigRej= -1.00D+00 NBFU=   114
 Initial guess from the checkpoint file:  "dairc1-testr.chk"
 B after Tr=    -0.000164    0.000095   -0.000036
         Rot=    1.000000   -0.000007   -0.000029    0.000017 Ang=  -0.00 deg.
 ExpMin= 9.52D-02 ExpMax= 1.36D+04 ExpMxC= 4.63D+02 IAcc=3 IRadAn=         5 AccDes= 0.00D+00
 Harris functional with IExCor= 1009 and IRadAn=       5 diagonalized for initial guess.
 HarFok:  IExCor= 1009 AccDes= 0.00D+00 IRadAn=         5 IDoV= 1 UseB2=F ITyADJ=14
 ICtDFT=  3500011 ScaDFX=  1.000000  1.000000  1.000000  1.000000
 FoFCou: FMM=F IPFlag=           0 FMFlag=      100000 FMFlg1=           0
         NFxFlg=           0 DoJE=T BraDBF=F KetDBF=T FulRan=T
         wScrn=  0.000000 ICntrl=       500 IOpCl=  0 I1Cent=   200000004 NGrid=           0
         NMat0=    1 NMatS0=      1 NMatT0=    0 NMatD0=    1 NMtDS0=    0 NMtDT0=    0
 Symmetry not used in FoFCou.
 Requested convergence on RMS density matrix=1.00D-08 within  32 cycles.
 Requested convergence on MAX density matrix=1.00D-06.
 Requested convergence on             energy=1.00D-06.
 No special actions if energy rises.
 SCF Done:  E(RM062X) =  -234.433765769     A.U. after   10 cycles
            NFock= 10  Conv=0.65D-08     -V/T= 2.0049
 QCSCF skips out because SCF is already converged.
 DoSCS=F DFT=T ScalE2(SS,OS)=  1.000000  1.000000
 Range of M.O.s used for correlation:     1   114
 NBasis=   114 NAE=    23 NBE=    23 NFC=     0 NFV=     0
 NROrb=    114 NOA=    23 NOB=    23 NVA=    91 NVB=    91

 **** Warning!!: The largest alpha MO coefficient is  0.28268021D+02

   1 Symmetry operations used in ECPInt.
 ECPInt:  NShTT=    3081 NPrTT=   11790 LenC2=    3051 LenP2D=    9046.
 LDataN:  DoStor=T MaxTD1= 3 Len=   28
 Symmetrizing basis deriv contribution to polar:
 IMax=3 JMax=2 DiffMx= 0.00D+00
 G2DrvN: will do    17 centers at a time, making    1 passes.
 Calling FoFCou, ICntrl=  3107 FMM=F I1Cent=   0 AccDes= 1.00D-11.
 End of G2Drv F.D. properties file   721 does not exist.
 End of G2Drv F.D. properties file   722 does not exist.
 End of G2Drv F.D. properties file   788 does not exist.
          IDoAtm=1111111111111111
          Differentiating once with respect to nuclear coordinates.
 Keep R1 ints in memory in canonical form, NReq=36494925.
          There are    51 degrees of freedom in the 1st order CPHF.  IDoFFX=6 NUNeed=     0.
     45 vectors produced by pass  0 Test12= 4.10D-15 1.96D-09 XBig12= 7.34D-02 9.98D-02.
 AX will form    45 AO Fock derivatives at one time.
     45 vectors produced by pass  1 Test12= 4.10D-15 1.96D-09 XBig12= 7.33D-03 2.06D-02.
     45 vectors produced by pass  2 Test12= 4.10D-15 1.96D-09 XBig12= 8.31D-05 1.46D-03.
     45 vectors produced by pass  3 Test12= 4.10D-15 1.96D-09 XBig12= 4.25D-07 9.02D-05.
     45 vectors produced by pass  4 Test12= 4.10D-15 1.96D-09 XBig12= 1.39D-09 4.58D-06.
     45 vectors produced by pass  5 Test12= 4.10D-15 1.96D-09 XBig12= 3.54D-12 2.57D-07.
     15 vectors produced by pass  6 Test12= 4.10D-15 1.96D-09 XBig12= 1.09D-14 1.31D-08.
 InvSVY:  IOpt=1 It=  1 EMax= 2.50D-16
 Solved reduced A of dimension   285 with    51 vectors.
 End of Minotr F.D. properties file   721 does not exist.
 End of Minotr F.D. properties file   722 does not exist.
 End of Minotr F.D. properties file   788 does not exist.
   1 Symmetry operations used in ECPInt.
 ECPInt:  NShTT=    3081 NPrTT=   11790 LenC2=    3051 LenP2D=    9046.
 LDataN:  DoStor=T MaxTD1= 4 Len=   56
 Calling FoFJK, ICntrl=    100127 FMM=F ISym2X=0 I1Cent= 0 IOpClX= 0 NMat=1 NMatS=1 NMatT=0.
 -------------------------------------------------------------------
 Center     Atomic                   Forces (Hartrees/Bohr)
 Number     Number              X              Y              Z
 -------------------------------------------------------------------
      1        6          -0.002530329    0.003417555    0.004143256
      2        6           0.000826866    0.000889066    0.000439894
      3        6          -0.000342288   -0.001174780    0.000479516
      4        6          -0.004108098    0.000597876    0.004173308
      5        6           0.004173412   -0.000253867   -0.004639690
      6        6           0.002227030   -0.003621040   -0.004554757
      7        1          -0.000096092    0.000189548    0.000184979
      8        1           0.000031244   -0.000036166   -0.000205167
      9        1           0.000042839   -0.000018844   -0.000205819
     10        1          -0.000204491   -0.000008189    0.000187836
     11        1          -0.000154044    0.000005308    0.000067919
     12        1           0.000026358    0.000097297    0.000161866
     13        1          -0.000081395    0.000133428    0.000066787
     14        1          -0.000068172   -0.000061379    0.000165954
     15        1           0.000179672    0.000005894   -0.000236747
     16        1           0.000077487   -0.000161706   -0.000229136
 -------------------------------------------------------------------
 Cartesian Forces:  Max     0.004639690 RMS     0.001777569
 IRC-IRC-IRC-IRC-IRC-IRC-IRC-IRC-IRC-IRC-IRC-IRC-IRC-IRC-IRC-IRC-IRC-IRC
 Pt  2 Step number   1 out of a maximum of  20
 Modified Bulirsch-Stoer Extrapolation Cycles:
    EPS =    0.000010000000000
      PEZero:  N= 2 I= 1 D=  7.59D-04 Err=  4.33D-06
 Maximum DWI energy   std dev =  0.000000661 at pt    34
 Maximum DWI gradient std dev =  0.013347931 at pt    11
 CORRECTOR INTEGRATION CONVERGENCE:
   Recorrection delta-x convergence threshold:    0.010000
   Delta-x Convergence Met
 Point Number:   2          Path Number:   1
   CHANGE IN THE REACTION COORDINATE =    0.14566
   NET REACTION COORDINATE UP TO THIS POINT =    0.29137
  # OF POINTS ALONG THE PATH =   2
  # OF STEPS =   1

 Calculating another point on the path.
 IRC-IRC-IRC-IRC-IRC-IRC-IRC-IRC-IRC-IRC-IRC-IRC-IRC-IRC-IRC-IRC-IRC-IRC
                          Input orientation:                          
 ---------------------------------------------------------------------
 Center     Atomic      Atomic             Coordinates (Angstroms)
 Number     Number       Type             X           Y           Z
 ---------------------------------------------------------------------
      1          6           0       -0.655137   -1.270427   -0.594120
      2          6           0        0.722462   -1.228468   -0.416599
      3          6           0        1.416372   -0.020137   -0.445193
      4          6           0        0.754464    1.184033   -0.652272
      5          6           0       -0.683285    1.222610    0.996033
      6          6           0       -1.379744    0.009747    1.024656
      7          1           0       -1.184254   -2.204003   -0.453666
      8          1           0        1.230884   -2.110458   -0.047511
      9          1           0        2.441654   -0.001931   -0.097202
     10          1           0        1.296440    2.115794   -0.555684
     11          1           0        0.080189    1.415209    1.734871
     12          1           0       -2.397710   -0.025344    0.659552
     13          1           0       -1.146006   -0.720113    1.785258
     14          1           0       -1.173768    2.106101    0.609206
     15          1           0       -0.095885    1.229733   -1.318043
     16          1           0       -1.136811   -0.582849   -1.274997
 ---------------------------------------------------------------------
                    Distance matrix (angstroms):
                    1          2          3          4          5
     1  C    0.000000
     2  C    1.389624   0.000000
     3  C    2.424161   1.393697   0.000000
     4  C    2.831030   2.424196   1.389615   0.000000
     5  C    2.957129   3.159024   2.833745   2.187583   0.000000
     6  C    2.187313   2.833666   3.159053   2.957343   1.398896
     7  H    1.082246   2.142104   3.395968   3.908562   3.754234
     8  H    2.135769   1.082878   2.135883   3.383250   3.982758
     9  H    3.383212   2.135890   1.082881   2.135701   3.529859
    10  H    3.908532   3.396010   2.142147   1.082241   2.669254
    11  H    3.630089   3.468482   2.932283   2.491293   1.079753
    12  H    2.481629   3.512987   3.970857   3.622109   2.147059
    13  H    2.491032   2.932196   3.468525   3.630304   2.147361
    14  H    3.621866   3.970807   3.513043   2.481857   1.082019
    15  H    2.662260   2.743182   2.147315   1.080941   2.387476
    16  H    1.080910   2.147223   2.742984   2.662063   2.936485
                    6          7          8          9         10
     6  C    0.000000
     7  H    2.669147   0.000000
     8  H    3.529899   2.450837   0.000000
     9  H    3.982685   4.257158   2.431937   0.000000
    10  H    3.754313   4.982459   4.257199   2.450812   0.000000
    11  H    2.147354   4.414432   4.114768   3.307763   2.686397
    12  H    1.082029   2.730985   4.244329   4.898231   4.439371
    13  H    1.079743   2.686294   3.307826   4.114699   4.414513
    14  H    2.147026   4.439234   4.898264   4.244300   2.731115
    15  H    2.936818   3.704354   3.812013   3.073524   1.817928
    16  H    2.387172   1.817959   3.073481   3.811834   3.704159
                   11         12         13         14         15
    11  H    0.000000
    12  H    3.061289   0.000000
    13  H    2.462863   1.821175   0.000000
    14  H    1.821225   2.458379   3.061266   0.000000
    15  H    3.063607   3.283976   3.812497   2.375741   0.000000
    16  H    3.812168   2.375532   3.063346   3.283601   2.090654
                   16
    16  H    0.000000
 Symmetry turned off by external request.
 Stoichiometry    C6H10
 Framework group  C1[X(C6H10)]
 Deg. of freedom    42
 Full point group                 C1      NOp   1
 Rotational constants (GHZ):           4.4115696           3.6032791           2.3369597
 Basis read from rwf:  (5D, 7F)
 Pseudo-potential data read from rwf file.
   114 basis functions,   224 primitive gaussians,   114 cartesian basis functions
    23 alpha electrons       23 beta electrons
       nuclear repulsion energy       226.2674722721 Hartrees.
 NAtoms=   16 NActive=   16 NUniq=   16 SFac= 1.00D+00 NAtFMM=   60 NAOKFM=F Big=F
 Integral buffers will be    131072 words long.
 Raffenetti 2 integral format.
 Two-electron integral symmetry is turned off.
 One-electron integrals computed using PRISM.
   1 Symmetry operations used in ECPInt.
 ECPInt:  NShTT=    3081 NPrTT=   11790 LenC2=    3051 LenP2D=    9046.
 LDataN:  DoStor=T MaxTD1= 2 Len=   12
 NBasis=   114 RedAO= T EigKep=  7.70D-05  NBF=   114
 NBsUse=   114 1.00D-06 EigRej= -1.00D+00 NBFU=   114
 Initial guess from the checkpoint file:  "dairc1-testr.chk"
 B after Tr=    -0.000152    0.000086   -0.000044
         Rot=    1.000000   -0.000016   -0.000035    0.000007 Ang=  -0.00 deg.
 ExpMin= 9.52D-02 ExpMax= 1.36D+04 ExpMxC= 4.63D+02 IAcc=3 IRadAn=         5 AccDes= 0.00D+00
 Harris functional with IExCor= 1009 and IRadAn=       5 diagonalized for initial guess.
 HarFok:  IExCor= 1009 AccDes= 0.00D+00 IRadAn=         5 IDoV= 1 UseB2=F ITyADJ=14
 ICtDFT=  3500011 ScaDFX=  1.000000  1.000000  1.000000  1.000000
 FoFCou: FMM=F IPFlag=           0 FMFlag=      100000 FMFlg1=           0
         NFxFlg=           0 DoJE=T BraDBF=F KetDBF=T FulRan=T
         wScrn=  0.000000 ICntrl=       500 IOpCl=  0 I1Cent=   200000004 NGrid=           0
         NMat0=    1 NMatS0=      1 NMatT0=    0 NMatD0=    1 NMtDS0=    0 NMtDT0=    0
 Symmetry not used in FoFCou.
 Requested convergence on RMS density matrix=1.00D-08 within  32 cycles.
 Requested convergence on MAX density matrix=1.00D-06.
 Requested convergence on             energy=1.00D-06.
 No special actions if energy rises.
 SCF Done:  E(RM062X) =  -234.434443994     A.U. after   10 cycles
            NFock= 10  Conv=0.64D-08     -V/T= 2.0050
 QCSCF skips out because SCF is already converged.
 DoSCS=F DFT=T ScalE2(SS,OS)=  1.000000  1.000000
 Range of M.O.s used for correlation:     1   114
 NBasis=   114 NAE=    23 NBE=    23 NFC=     0 NFV=     0
 NROrb=    114 NOA=    23 NOB=    23 NVA=    91 NVB=    91

 **** Warning!!: The largest alpha MO coefficient is  0.29915075D+02

   1 Symmetry operations used in ECPInt.
 ECPInt:  NShTT=    3081 NPrTT=   11790 LenC2=    3051 LenP2D=    9046.
 LDataN:  DoStor=T MaxTD1= 3 Len=   28
 Symmetrizing basis deriv contribution to polar:
 IMax=3 JMax=2 DiffMx= 0.00D+00
 G2DrvN: will do    17 centers at a time, making    1 passes.
 Calling FoFCou, ICntrl=  3107 FMM=F I1Cent=   0 AccDes= 1.00D-11.
 End of G2Drv F.D. properties file   721 does not exist.
 End of G2Drv F.D. properties file   722 does not exist.
 End of G2Drv F.D. properties file   788 does not exist.
          IDoAtm=1111111111111111
          Differentiating once with respect to nuclear coordinates.
 Keep R1 ints in memory in canonical form, NReq=36494925.
          There are    51 degrees of freedom in the 1st order CPHF.  IDoFFX=6 NUNeed=     0.
     45 vectors produced by pass  0 Test12= 4.10D-15 1.96D-09 XBig12= 7.34D-02 1.01D-01.
 AX will form    45 AO Fock derivatives at one time.
     45 vectors produced by pass  1 Test12= 4.10D-15 1.96D-09 XBig12= 7.27D-03 2.13D-02.
     45 vectors produced by pass  2 Test12= 4.10D-15 1.96D-09 XBig12= 8.27D-05 1.45D-03.
     45 vectors produced by pass  3 Test12= 4.10D-15 1.96D-09 XBig12= 4.23D-07 8.14D-05.
     45 vectors produced by pass  4 Test12= 4.10D-15 1.96D-09 XBig12= 1.38D-09 4.91D-06.
     45 vectors produced by pass  5 Test12= 4.10D-15 1.96D-09 XBig12= 3.47D-12 2.60D-07.
     15 vectors produced by pass  6 Test12= 4.10D-15 1.96D-09 XBig12= 1.07D-14 1.33D-08.
 InvSVY:  IOpt=1 It=  1 EMax= 2.22D-16
 Solved reduced A of dimension   285 with    51 vectors.
 End of Minotr F.D. properties file   721 does not exist.
 End of Minotr F.D. properties file   722 does not exist.
 End of Minotr F.D. properties file   788 does not exist.
   1 Symmetry operations used in ECPInt.
 ECPInt:  NShTT=    3081 NPrTT=   11790 LenC2=    3051 LenP2D=    9046.
 LDataN:  DoStor=T MaxTD1= 4 Len=   56
 Calling FoFJK, ICntrl=    100127 FMM=F ISym2X=0 I1Cent= 0 IOpClX= 0 NMat=1 NMatS=1 NMatT=0.
 -------------------------------------------------------------------
 Center     Atomic                   Forces (Hartrees/Bohr)
 Number     Number              X              Y              Z
 -------------------------------------------------------------------
      1        6          -0.004015869    0.005342215    0.006547830
      2        6           0.001349807    0.001387303    0.000693135
      3        6          -0.000502984   -0.001870039    0.000765461
      4        6          -0.006470332    0.000996504    0.006618312
      5        6           0.006585838   -0.000352753   -0.007319989
      6        6           0.003473539   -0.005744803   -0.007178288
      7        1          -0.000142991    0.000285430    0.000277911
      8        1           0.000058127   -0.000067228   -0.000342746
      9        1           0.000080031   -0.000031535   -0.000343775
     10        1          -0.000308852   -0.000012942    0.000283228
     11        1          -0.000233533    0.000014877    0.000131725
     12        1           0.000007572    0.000158204    0.000262454
     13        1          -0.000128833    0.000199747    0.000129821
     14        1          -0.000127968   -0.000072821    0.000269367
     15        1           0.000268215    0.000016367   -0.000403224
     16        1           0.000108233   -0.000248525   -0.000391222
 -------------------------------------------------------------------
 Cartesian Forces:  Max     0.007319989 RMS     0.002805652
 IRC-IRC-IRC-IRC-IRC-IRC-IRC-IRC-IRC-IRC-IRC-IRC-IRC-IRC-IRC-IRC-IRC-IRC
 Pt  3 Step number   1 out of a maximum of  20
 Modified Bulirsch-Stoer Extrapolation Cycles:
    EPS =    0.000010000000000
      PEZero:  N= 2 I= 1 D=  7.59D-04 Err=  4.78D-06
 Maximum DWI energy   std dev =  0.000000668 at pt    34
 Maximum DWI gradient std dev =  0.006978762 at pt    15
 CORRECTOR INTEGRATION CONVERGENCE:
   Recorrection delta-x convergence threshold:    0.010000
   Delta-x Convergence Met
 Point Number:   3          Path Number:   1
   CHANGE IN THE REACTION COORDINATE =    0.14567
   NET REACTION COORDINATE UP TO THIS POINT =    0.43705
  # OF POINTS ALONG THE PATH =   3
  # OF STEPS =   1

 Calculating another point on the path.
 IRC-IRC-IRC-IRC-IRC-IRC-IRC-IRC-IRC-IRC-IRC-IRC-IRC-IRC-IRC-IRC-IRC-IRC
                          Input orientation:                          
 ---------------------------------------------------------------------
 Center     Atomic      Atomic             Coordinates (Angstroms)
 Number     Number       Type             X           Y           Z
 ---------------------------------------------------------------------
      1          6           0       -0.659627   -1.264487   -0.586729
      2          6           0        0.723993   -1.226907   -0.415823
      3          6           0        1.415811   -0.022248   -0.444334
      4          6           0        0.747255    1.185167   -0.644794
      5          6           0       -0.675912    1.222175    0.987805
      6          6           0       -1.375820    0.003334    1.016588
      7          1           0       -1.186135   -2.200291   -0.450040
      8          1           0        1.231754   -2.111502   -0.052163
      9          1           0        2.442898   -0.002361   -0.101869
     10          1           0        1.292409    2.115653   -0.551981
     11          1           0        0.077451    1.415565    1.737087
     12          1           0       -2.398293   -0.023238    0.662955
     13          1           0       -1.147662   -0.717824    1.787451
     14          1           0       -1.175805    2.105688    0.612695
     15          1           0       -0.092915    1.230018   -1.324014
     16          1           0       -1.135734   -0.585709   -1.280810
 ---------------------------------------------------------------------
                    Distance matrix (angstroms):
                    1          2          3          4          5
     1  C    0.000000
     2  C    1.394642   0.000000
     3  C    2.422990   1.389471   0.000000
     4  C    2.825508   2.423029   1.394633   0.000000
     5  C    2.943283   3.150858   2.823989   2.166138   0.000000
     6  C    2.165855   2.823917   3.150897   2.943530   1.405801
     7  H    1.082415   2.144117   3.393233   3.903492   3.747132
     8  H    2.140214   1.082857   2.133696   3.384372   3.979212
     9  H    3.384334   2.133709   1.082859   2.140139   3.523329
    10  H    3.903460   3.393279   2.144163   1.082410   2.653965
    11  H    3.622994   3.469250   2.935492   2.484971   1.079990
    12  H    2.474948   3.515856   3.971584   3.614543   2.150158
    13  H    2.484703   2.935417   3.469306   3.623245   2.150716
    14  H    3.614296   3.971557   3.515948   2.475236   1.082218
    15  H    2.662200   2.743835   2.149015   1.081313   2.384209
    16  H    1.081280   2.148935   2.743641   2.661985   2.937089
                    6          7          8          9         10
     6  C    0.000000
     7  H    2.653853   0.000000
     8  H    3.523379   2.452015   0.000000
     9  H    3.979144   4.256994   2.432656   0.000000
    10  H    3.747232   4.978046   4.257033   2.451980   0.000000
    11  H    2.150701   4.410736   4.119956   3.314757   2.684414
    12  H    1.082225   2.729036   4.248468   4.901277   4.435335
    13  H    1.079979   2.684316   3.314836   4.119896   4.410836
    14  H    2.150123   4.435196   4.901333   4.248468   2.729221
    15  H    2.937519   3.704859   3.812888   3.072905   1.816454
    16  H    2.383831   1.816478   3.072884   3.812716   3.704649
                   11         12         13         14         15
    11  H    0.000000
    12  H    3.058304   0.000000
    13  H    2.460648   1.819620   0.000000
    14  H    1.819664   2.455469   3.058278   0.000000
    15  H    3.071448   3.291423   3.819398   2.385433   0.000000
    16  H    3.818981   2.385089   3.071127   3.290985   2.094326
                   16
    16  H    0.000000
 Symmetry turned off by external request.
 Stoichiometry    C6H10
 Framework group  C1[X(C6H10)]
 Deg. of freedom    42
 Full point group                 C1      NOp   1
 Rotational constants (GHZ):           4.4208361           3.6272326           2.3480387
 Basis read from rwf:  (5D, 7F)
 Pseudo-potential data read from rwf file.
   114 basis functions,   224 primitive gaussians,   114 cartesian basis functions
    23 alpha electrons       23 beta electrons
       nuclear repulsion energy       226.4927170057 Hartrees.
 NAtoms=   16 NActive=   16 NUniq=   16 SFac= 1.00D+00 NAtFMM=   60 NAOKFM=F Big=F
 Integral buffers will be    131072 words long.
 Raffenetti 2 integral format.
 Two-electron integral symmetry is turned off.
 One-electron integrals computed using PRISM.
   1 Symmetry operations used in ECPInt.
 ECPInt:  NShTT=    3081 NPrTT=   11790 LenC2=    3051 LenP2D=    9046.
 LDataN:  DoStor=T MaxTD1= 2 Len=   12
 NBasis=   114 RedAO= T EigKep=  7.48D-05  NBF=   114
 NBsUse=   114 1.00D-06 EigRej= -1.00D+00 NBFU=   114
 Initial guess from the checkpoint file:  "dairc1-testr.chk"
 B after Tr=    -0.000140    0.000079   -0.000055
         Rot=    1.000000   -0.000019   -0.000038    0.000005 Ang=  -0.00 deg.
 ExpMin= 9.52D-02 ExpMax= 1.36D+04 ExpMxC= 4.63D+02 IAcc=3 IRadAn=         5 AccDes= 0.00D+00
 Harris functional with IExCor= 1009 and IRadAn=       5 diagonalized for initial guess.
 HarFok:  IExCor= 1009 AccDes= 0.00D+00 IRadAn=         5 IDoV= 1 UseB2=F ITyADJ=14
 ICtDFT=  3500011 ScaDFX=  1.000000  1.000000  1.000000  1.000000
 FoFCou: FMM=F IPFlag=           0 FMFlag=      100000 FMFlg1=           0
         NFxFlg=           0 DoJE=T BraDBF=F KetDBF=T FulRan=T
         wScrn=  0.000000 ICntrl=       500 IOpCl=  0 I1Cent=   200000004 NGrid=           0
         NMat0=    1 NMatS0=      1 NMatT0=    0 NMatD0=    1 NMtDS0=    0 NMtDT0=    0
 Symmetry not used in FoFCou.
 Requested convergence on RMS density matrix=1.00D-08 within  32 cycles.
 Requested convergence on MAX density matrix=1.00D-06.
 Requested convergence on             energy=1.00D-06.
 No special actions if energy rises.
 SCF Done:  E(RM062X) =  -234.435441982     A.U. after   10 cycles
            NFock= 10  Conv=0.65D-08     -V/T= 2.0051
 QCSCF skips out because SCF is already converged.
 DoSCS=F DFT=T ScalE2(SS,OS)=  1.000000  1.000000
 Range of M.O.s used for correlation:     1   114
 NBasis=   114 NAE=    23 NBE=    23 NFC=     0 NFV=     0
 NROrb=    114 NOA=    23 NOB=    23 NVA=    91 NVB=    91

 **** Warning!!: The largest alpha MO coefficient is  0.31409461D+02

   1 Symmetry operations used in ECPInt.
 ECPInt:  NShTT=    3081 NPrTT=   11790 LenC2=    3051 LenP2D=    9046.
 LDataN:  DoStor=T MaxTD1= 3 Len=   28
 Symmetrizing basis deriv contribution to polar:
 IMax=3 JMax=2 DiffMx= 0.00D+00
 G2DrvN: will do    17 centers at a time, making    1 passes.
 Calling FoFCou, ICntrl=  3107 FMM=F I1Cent=   0 AccDes= 1.00D-11.
 End of G2Drv F.D. properties file   721 does not exist.
 End of G2Drv F.D. properties file   722 does not exist.
 End of G2Drv F.D. properties file   788 does not exist.
          IDoAtm=1111111111111111
          Differentiating once with respect to nuclear coordinates.
 Keep R1 ints in memory in canonical form, NReq=36494925.
          There are    51 degrees of freedom in the 1st order CPHF.  IDoFFX=6 NUNeed=     0.
     45 vectors produced by pass  0 Test12= 4.10D-15 1.96D-09 XBig12= 7.34D-02 1.01D-01.
 AX will form    45 AO Fock derivatives at one time.
     45 vectors produced by pass  1 Test12= 4.10D-15 1.96D-09 XBig12= 7.20D-03 2.20D-02.
     45 vectors produced by pass  2 Test12= 4.10D-15 1.96D-09 XBig12= 8.22D-05 1.44D-03.
     45 vectors produced by pass  3 Test12= 4.10D-15 1.96D-09 XBig12= 4.20D-07 7.45D-05.
     45 vectors produced by pass  4 Test12= 4.10D-15 1.96D-09 XBig12= 1.36D-09 5.12D-06.
     45 vectors produced by pass  5 Test12= 4.10D-15 1.96D-09 XBig12= 3.40D-12 2.64D-07.
     15 vectors produced by pass  6 Test12= 4.10D-15 1.96D-09 XBig12= 1.04D-14 1.40D-08.
 InvSVY:  IOpt=1 It=  1 EMax= 3.61D-16
 Solved reduced A of dimension   285 with    51 vectors.
 End of Minotr F.D. properties file   721 does not exist.
 End of Minotr F.D. properties file   722 does not exist.
 End of Minotr F.D. properties file   788 does not exist.
   1 Symmetry operations used in ECPInt.
 ECPInt:  NShTT=    3081 NPrTT=   11790 LenC2=    3051 LenP2D=    9046.
 LDataN:  DoStor=T MaxTD1= 4 Len=   56
 Calling FoFJK, ICntrl=    100127 FMM=F ISym2X=0 I1Cent= 0 IOpClX= 0 NMat=1 NMatS=1 NMatT=0.
 -------------------------------------------------------------------
 Center     Atomic                   Forces (Hartrees/Bohr)
 Number     Number              X              Y              Z
 -------------------------------------------------------------------
      1        6          -0.005674066    0.007419084    0.009142131
      2        6           0.001950596    0.001902193    0.000982209
      3        6          -0.000637222   -0.002640355    0.001087365
      4        6          -0.009050756    0.001477127    0.009257462
      5        6           0.009231578   -0.000362382   -0.010213270
      6        6           0.004754653   -0.008123844   -0.010009324
      7        1          -0.000187416    0.000382068    0.000368336
      8        1           0.000091328   -0.000106581   -0.000505212
      9        1           0.000127552   -0.000046409   -0.000506594
     10        1          -0.000412667   -0.000019925    0.000376773
     11        1          -0.000326935    0.000022062    0.000203603
     12        1          -0.000012212    0.000232229    0.000382125
     13        1          -0.000181038    0.000279282    0.000200677
     14        1          -0.000198934   -0.000088316    0.000391005
     15        1           0.000378868    0.000030707   -0.000586626
     16        1           0.000146671   -0.000356940   -0.000570659
 -------------------------------------------------------------------
 Cartesian Forces:  Max     0.010213270 RMS     0.003923381
 IRC-IRC-IRC-IRC-IRC-IRC-IRC-IRC-IRC-IRC-IRC-IRC-IRC-IRC-IRC-IRC-IRC-IRC
 Pt  4 Step number   1 out of a maximum of  20
 Modified Bulirsch-Stoer Extrapolation Cycles:
    EPS =    0.000010000000000
      PEZero:  N= 2 I= 1 D=  7.59D-04 Err=  5.03D-06
 Maximum DWI energy   std dev =  0.000000637 at pt    34
 Maximum DWI gradient std dev =  0.004561820 at pt    12
 CORRECTOR INTEGRATION CONVERGENCE:
   Recorrection delta-x convergence threshold:    0.010000
   Delta-x Convergence Met
 Point Number:   4          Path Number:   1
   CHANGE IN THE REACTION COORDINATE =    0.14568
   NET REACTION COORDINATE UP TO THIS POINT =    0.58272
  # OF POINTS ALONG THE PATH =   4
  # OF STEPS =   1

 Calculating another point on the path.
 IRC-IRC-IRC-IRC-IRC-IRC-IRC-IRC-IRC-IRC-IRC-IRC-IRC-IRC-IRC-IRC-IRC-IRC
                          Input orientation:                          
 ---------------------------------------------------------------------
 Center     Atomic      Atomic             Coordinates (Angstroms)
 Number     Number       Type             X           Y           Z
 ---------------------------------------------------------------------
      1          6           0       -0.664177   -1.258579   -0.579375
      2          6           0        0.725576   -1.225385   -0.415033
      3          6           0        1.415313   -0.024377   -0.443459
      4          6           0        0.740029    1.186374   -0.637344
      5          6           0       -0.668515    1.221886    0.979612
      6          6           0       -1.372011   -0.003179    1.008559
      7          1           0       -1.187887   -2.196731   -0.446603
      8          1           0        1.232700   -2.112638   -0.057069
      9          1           0        2.444257   -0.002809   -0.106790
     10          1           0        1.288558    2.115477   -0.548462
     11          1           0        0.074563    1.415861    1.739339
     12          1           0       -2.398864   -0.020998    0.666557
     13          1           0       -1.149342   -0.715381    1.789672
     14          1           0       -1.177939    2.105201    0.616376
     15          1           0       -0.089665    1.230361   -1.330013
     16          1           0       -1.134561   -0.588853   -1.286660
 ---------------------------------------------------------------------
                    Distance matrix (angstroms):
                    1          2          3          4          5
     1  C    0.000000
     2  C    1.399830   0.000000
     3  C    2.421984   1.385267   0.000000
     4  C    2.820098   2.422027   1.399828   0.000000
     5  C    2.929704   3.142874   2.814363   2.144715   0.000000
     6  C    2.144433   2.814298   3.142925   2.929974   1.412986
     7  H    1.082603   2.146125   3.390543   3.898544   3.740425
     8  H    2.144846   1.082835   2.131544   3.385694   3.975975
     9  H    3.385654   2.131565   1.082837   2.144769   3.517029
    10  H    3.898511   3.390592   2.146175   1.082597   2.638873
    11  H    3.615909   3.470060   2.938792   2.478735   1.080266
    12  H    2.468419   3.518879   3.972417   3.607015   2.153340
    13  H    2.478473   2.938731   3.470131   3.616186   2.154158
    14  H    3.606769   3.972401   3.518992   2.468736   1.082450
    15  H    2.662395   2.744539   2.150652   1.081720   2.381072
    16  H    1.081687   2.150585   2.744354   2.662167   2.938021
                    6          7          8          9         10
     6  C    0.000000
     7  H    2.638763   0.000000
     8  H    3.517087   2.453172   0.000000
     9  H    3.975915   4.256904   2.433459   0.000000
    10  H    3.740541   4.973761   4.256941   2.453131   0.000000
    11  H    2.154133   4.407147   4.125369   3.322088   2.682774
    12  H    1.082456   2.727527   4.252864   4.904510   4.431465
    13  H    1.080255   2.682687   3.322183   4.125321   4.407265
    14  H    2.153308   4.431325   4.904577   4.252879   2.727739
    15  H    2.938529   3.705599   3.813749   3.072091   1.814870
    16  H    2.380637   1.814885   3.072090   3.813591   3.705381
                   11         12         13         14         15
    11  H    0.000000
    12  H    3.055039   0.000000
    13  H    2.458184   1.817927   0.000000
    14  H    1.817965   2.452325   3.055016   0.000000
    15  H    3.079334   3.299181   3.826390   2.395436   0.000000
    16  H    3.825903   2.394991   3.078969   3.298690   2.098387
                   16
    16  H    0.000000
 Symmetry turned off by external request.
 Stoichiometry    C6H10
 Framework group  C1[X(C6H10)]
 Deg. of freedom    42
 Full point group                 C1      NOp   1
 Rotational constants (GHZ):           4.4297493           3.6509233           2.3588571
 Basis read from rwf:  (5D, 7F)
 Pseudo-potential data read from rwf file.
   114 basis functions,   224 primitive gaussians,   114 cartesian basis functions
    23 alpha electrons       23 beta electrons
       nuclear repulsion energy       226.7109451482 Hartrees.
 NAtoms=   16 NActive=   16 NUniq=   16 SFac= 1.00D+00 NAtFMM=   60 NAOKFM=F Big=F
 Integral buffers will be    131072 words long.
 Raffenetti 2 integral format.
 Two-electron integral symmetry is turned off.
 One-electron integrals computed using PRISM.
   1 Symmetry operations used in ECPInt.
 ECPInt:  NShTT=    3081 NPrTT=   11790 LenC2=    3051 LenP2D=    9044.
 LDataN:  DoStor=T MaxTD1= 2 Len=   12
 NBasis=   114 RedAO= T EigKep=  7.28D-05  NBF=   114
 NBsUse=   114 1.00D-06 EigRej= -1.00D+00 NBFU=   114
 Initial guess from the checkpoint file:  "dairc1-testr.chk"
 B after Tr=    -0.000127    0.000072   -0.000065
         Rot=    1.000000   -0.000021   -0.000040    0.000004 Ang=  -0.01 deg.
 ExpMin= 9.52D-02 ExpMax= 1.36D+04 ExpMxC= 4.63D+02 IAcc=3 IRadAn=         5 AccDes= 0.00D+00
 Harris functional with IExCor= 1009 and IRadAn=       5 diagonalized for initial guess.
 HarFok:  IExCor= 1009 AccDes= 0.00D+00 IRadAn=         5 IDoV= 1 UseB2=F ITyADJ=14
 ICtDFT=  3500011 ScaDFX=  1.000000  1.000000  1.000000  1.000000
 FoFCou: FMM=F IPFlag=           0 FMFlag=      100000 FMFlg1=           0
         NFxFlg=           0 DoJE=T BraDBF=F KetDBF=T FulRan=T
         wScrn=  0.000000 ICntrl=       500 IOpCl=  0 I1Cent=   200000004 NGrid=           0
         NMat0=    1 NMatS0=      1 NMatT0=    0 NMatD0=    1 NMtDS0=    0 NMtDT0=    0
 Symmetry not used in FoFCou.
 Requested convergence on RMS density matrix=1.00D-08 within  32 cycles.
 Requested convergence on MAX density matrix=1.00D-06.
 Requested convergence on             energy=1.00D-06.
 No special actions if energy rises.
 SCF Done:  E(RM062X) =  -234.436785454     A.U. after   10 cycles
            NFock= 10  Conv=0.66D-08     -V/T= 2.0052
 QCSCF skips out because SCF is already converged.
 DoSCS=F DFT=T ScalE2(SS,OS)=  1.000000  1.000000
 Range of M.O.s used for correlation:     1   114
 NBasis=   114 NAE=    23 NBE=    23 NFC=     0 NFV=     0
 NROrb=    114 NOA=    23 NOB=    23 NVA=    91 NVB=    91

 **** Warning!!: The largest alpha MO coefficient is  0.32656306D+02

   1 Symmetry operations used in ECPInt.
 ECPInt:  NShTT=    3081 NPrTT=   11790 LenC2=    3051 LenP2D=    9044.
 LDataN:  DoStor=T MaxTD1= 3 Len=   28
 Symmetrizing basis deriv contribution to polar:
 IMax=3 JMax=2 DiffMx= 0.00D+00
 G2DrvN: will do    17 centers at a time, making    1 passes.
 Calling FoFCou, ICntrl=  3107 FMM=F I1Cent=   0 AccDes= 1.00D-11.
 End of G2Drv F.D. properties file   721 does not exist.
 End of G2Drv F.D. properties file   722 does not exist.
 End of G2Drv F.D. properties file   788 does not exist.
          IDoAtm=1111111111111111
          Differentiating once with respect to nuclear coordinates.
 Keep R1 ints in memory in canonical form, NReq=36494925.
          There are    51 degrees of freedom in the 1st order CPHF.  IDoFFX=6 NUNeed=     0.
     45 vectors produced by pass  0 Test12= 4.10D-15 1.96D-09 XBig12= 7.31D-02 1.01D-01.
 AX will form    45 AO Fock derivatives at one time.
     45 vectors produced by pass  1 Test12= 4.10D-15 1.96D-09 XBig12= 7.12D-03 2.27D-02.
     45 vectors produced by pass  2 Test12= 4.10D-15 1.96D-09 XBig12= 8.17D-05 1.42D-03.
     45 vectors produced by pass  3 Test12= 4.10D-15 1.96D-09 XBig12= 4.17D-07 7.31D-05.
     45 vectors produced by pass  4 Test12= 4.10D-15 1.96D-09 XBig12= 1.35D-09 5.17D-06.
     45 vectors produced by pass  5 Test12= 4.10D-15 1.96D-09 XBig12= 3.34D-12 2.69D-07.
     16 vectors produced by pass  6 Test12= 4.10D-15 1.96D-09 XBig12= 1.00D-14 1.48D-08.
 InvSVY:  IOpt=1 It=  1 EMax= 3.89D-16
 Solved reduced A of dimension   286 with    51 vectors.
 End of Minotr F.D. properties file   721 does not exist.
 End of Minotr F.D. properties file   722 does not exist.
 End of Minotr F.D. properties file   788 does not exist.
   1 Symmetry operations used in ECPInt.
 ECPInt:  NShTT=    3081 NPrTT=   11790 LenC2=    3051 LenP2D=    9044.
 LDataN:  DoStor=T MaxTD1= 4 Len=   56
 Calling FoFJK, ICntrl=    100127 FMM=F ISym2X=0 I1Cent= 0 IOpClX= 0 NMat=1 NMatS=1 NMatT=0.
 -------------------------------------------------------------------
 Center     Atomic                   Forces (Hartrees/Bohr)
 Number     Number              X              Y              Z
 -------------------------------------------------------------------
      1        6          -0.007485388    0.009631877    0.011904809
      2        6           0.002609123    0.002418286    0.001305297
      3        6          -0.000741250   -0.003459668    0.001442384
      4        6          -0.011823412    0.002028930    0.012068037
      5        6           0.012078430   -0.000289563   -0.013292937
      6        6           0.006063159   -0.010727148   -0.013023739
      7        1          -0.000229125    0.000479357    0.000458131
      8        1           0.000129556   -0.000153808   -0.000692108
      9        1           0.000184148   -0.000062585   -0.000694416
     10        1          -0.000515666   -0.000029482    0.000469534
     11        1          -0.000432157    0.000024518    0.000278664
     12        1          -0.000030126    0.000317615    0.000517216
     13        1          -0.000235113    0.000371749    0.000274312
     14        1          -0.000277461   -0.000110696    0.000527297
     15        1           0.000511340    0.000048472   -0.000780457
     16        1           0.000193943   -0.000487858   -0.000762026
 -------------------------------------------------------------------
 Cartesian Forces:  Max     0.013292937 RMS     0.005119771
 IRC-IRC-IRC-IRC-IRC-IRC-IRC-IRC-IRC-IRC-IRC-IRC-IRC-IRC-IRC-IRC-IRC-IRC
 Pt  5 Step number   1 out of a maximum of  20
 Modified Bulirsch-Stoer Extrapolation Cycles:
    EPS =    0.000010000000000
      PEZero:  N= 2 I= 1 D=  7.59D-04 Err=  4.87D-06
 Maximum DWI energy   std dev =  0.000000551 at pt    46
 Maximum DWI gradient std dev =  0.003291605 at pt    12
 CORRECTOR INTEGRATION CONVERGENCE:
   Recorrection delta-x convergence threshold:    0.010000
   Delta-x Convergence Met
 Point Number:   5          Path Number:   1
   CHANGE IN THE REACTION COORDINATE =    0.14568
   NET REACTION COORDINATE UP TO THIS POINT =    0.72840
  # OF POINTS ALONG THE PATH =   5
  # OF STEPS =   1

 Calculating another point on the path.
 IRC-IRC-IRC-IRC-IRC-IRC-IRC-IRC-IRC-IRC-IRC-IRC-IRC-IRC-IRC-IRC-IRC-IRC
                          Input orientation:                          
 ---------------------------------------------------------------------
 Center     Atomic      Atomic             Coordinates (Angstroms)
 Number     Number       Type             X           Y           Z
 ---------------------------------------------------------------------
      1          6           0       -0.668780   -1.252696   -0.572050
      2          6           0        0.727193   -1.223909   -0.414227
      3          6           0        1.414874   -0.026507   -0.442569
      4          6           0        0.732791    1.187643   -0.629916
      5          6           0       -0.661099    1.221726    0.971451
      6          6           0       -1.368301   -0.009776    1.000563
      7          1           0       -1.189524   -2.193298   -0.443319
      8          1           0        1.233705   -2.113863   -0.062215
      9          1           0        2.445720   -0.003268   -0.111958
     10          1           0        1.284866    2.115266   -0.545094
     11          1           0        0.071558    1.416081    1.741581
     12          1           0       -2.399393   -0.018645    0.670315
     13          1           0       -1.151014   -0.712802    1.791879
     14          1           0       -1.180136    2.104623    0.620201
     15          1           0       -0.086157    1.230755   -1.335991
     16          1           0       -1.133289   -0.592265   -1.292516
 ---------------------------------------------------------------------
                    Distance matrix (angstroms):
                    1          2          3          4          5
     1  C    0.000000
     2  C    1.405161   0.000000
     3  C    2.421140   1.381116   0.000000
     4  C    2.814783   2.421185   1.405168   0.000000
[...]
          There are    51 degrees of freedom in the 1st order CPHF.  IDoFFX=6 NUNeed=     0.
     45 vectors produced by pass  0 Test12= 4.10D-15 1.96D-09 XBig12= 5.92D-02 6.42D-02.
 AX will form    45 AO Fock derivatives at one time.
     45 vectors produced by pass  1 Test12= 4.10D-15 1.96D-09 XBig12= 4.22D-03 3.13D-02.
     45 vectors produced by pass  2 Test12= 4.10D-15 1.96D-09 XBig12= 5.32D-05 1.58D-03.
     45 vectors produced by pass  3 Test12= 4.10D-15 1.96D-09 XBig12= 2.58D-07 1.04D-04.
     45 vectors produced by pass  4 Test12= 4.10D-15 1.96D-09 XBig12= 7.71D-10 5.67D-06.
     45 vectors produced by pass  5 Test12= 4.10D-15 1.96D-09 XBig12= 2.29D-12 3.49D-07.
     11 vectors produced by pass  6 Test12= 4.10D-15 1.96D-09 XBig12= 7.24D-15 1.22D-08.
 InvSVY:  IOpt=1 It=  1 EMax= 1.67D-16
 Solved reduced A of dimension   281 with    51 vectors.
 End of Minotr F.D. properties file   721 does not exist.
 End of Minotr F.D. properties file   722 does not exist.
 End of Minotr F.D. properties file   788 does not exist.
   1 Symmetry operations used in ECPInt.
 ECPInt:  NShTT=    3081 NPrTT=   11790 LenC2=    3056 LenP2D=    9180.
 LDataN:  DoStor=T MaxTD1= 4 Len=   56
 Calling FoFJK, ICntrl=    100127 FMM=F ISym2X=0 I1Cent= 0 IOpClX= 0 NMat=1 NMatS=1 NMatT=0.
 -------------------------------------------------------------------
 Center     Atomic                   Forces (Hartrees/Bohr)
 Number     Number              X              Y              Z
 -------------------------------------------------------------------
      1        6          -0.000041982   -0.000049418   -0.000014197
      2        6          -0.000018528   -0.000036235   -0.000013782
      3        6           0.000019122    0.000016766   -0.000019158
      4        6           0.000035046    0.000050728   -0.000030238
      5        6           0.000012844    0.000031635   -0.000010989
      6        6          -0.000009880   -0.000011064   -0.000001734
      7        1           0.000032804    0.000066951   -0.000006962
      8        1          -0.000025208    0.000031128   -0.000002812
      9        1          -0.000041851    0.000003454   -0.000003689
     10        1          -0.000040107   -0.000062449   -0.000005802
     11        1          -0.000012895    0.000000694   -0.000023791
     12        1           0.000010134   -0.000000858    0.000001701
     13        1          -0.000004760    0.000010724   -0.000019385
     14        1           0.000010501   -0.000011477    0.000000477
     15        1           0.000049056   -0.000004606    0.000074491
     16        1           0.000025703   -0.000035973    0.000075869
 -------------------------------------------------------------------
 Cartesian Forces:  Max     0.000075869 RMS     0.000030725
 IRC-IRC-IRC-IRC-IRC-IRC-IRC-IRC-IRC-IRC-IRC-IRC-IRC-IRC-IRC-IRC-IRC-IRC
 Pt 39 Step number   1 out of a maximum of  20
 Modified Bulirsch-Stoer Extrapolation Cycles:
    EPS =    0.000010000000000
      PEZero:  N= 2 I= 1 D=  7.55D-04 Err=  1.04D-02
      PEZero:  N= 3 I= 2 D=  7.55D-04 Err=  1.23D-02
      PEZero:  N= 3 I= 1 D=  1.51D-03 Err=  8.08D-03
      PEZero:  N= 4 I= 3 D=  3.77D-04 Err=  1.61D-02
      PEZero:  N= 4 I= 2 D=  1.13D-03 Err=  9.14D-03
      PEZero:  N= 4 I= 1 D=  1.89D-03 Err=  6.12D-03
      PEZero:  N= 5 I= 4 D=  3.77D-04 Err=  7.34D-03
      PEZero:  N= 5 I= 3 D=  7.55D-04 Err=  5.08D-03
      PEZero:  N= 5 I= 2 D=  1.51D-03 Err=  9.65D-03
      PEZero:  N= 6 I= 5 D=  1.89D-04 Err=  6.09D-03
      PEZero:  N= 6 I= 4 D=  5.66D-04 Err=  1.29D-03
      PEZero:  N= 6 I= 3 D=  9.43D-04 Err=  4.19D-03
      PEZero:  N= 7 I= 6 D=  1.89D-04 Err=  3.78D-03
      PEZero:  N= 7 I= 5 D=  3.77D-04 Err=  6.39D-04
      PEZero:  N= 7 I= 4 D=  7.55D-04 Err=  8.02D-04
      PEZero:  N= 8 I= 7 D=  9.43D-05 Err=  3.04D-03
      PEZero:  N= 8 I= 6 D=  2.83D-04 Err=  2.92D-04
      PEZero:  N= 8 I= 5 D=  4.72D-04 Err=  5.84D-04
      PEZero:  N= 9 I= 8 D=  9.43D-05 Err=  6.31D-04
      PEZero:  N= 9 I= 7 D=  1.89D-04 Err=  2.10D-03
      PEZero:  N=10 I= 9 D=  4.72D-05 Err=  6.49D-06
      PEZero:  N=10 I= 8 D=  1.41D-04 Err=  6.26D-04
 Maximum DWI energy   std dev =  0.000000107 at pt    95
 Maximum DWI gradient std dev =  0.271389792 at pt   152
 CORRECTOR INTEGRATION CONVERGENCE:
   Recorrection delta-x convergence threshold:    0.010000
   Delta-x Convergence Met
 Point Number:  39          Path Number:   1
   CHANGE IN THE REACTION COORDINATE =    0.14459
   NET REACTION COORDINATE UP TO THIS POINT =    5.67397
  # OF POINTS ALONG THE PATH =  39
  # OF STEPS =   1

 PES minimum detected on this side of the pathway.
    Magnitude of the gradient =      0.0000262
 Calculation of REVERSE path complete.
 Reaction path calculation complete.
 
 Energies reported relative to the TS energy of        -234.433258
 --------------------------------------------------------------------------
    Summary of reaction path following
 --------------------------------------------------------------------------
                        Energy    RxCoord
   1                   -0.09921  -5.67397
   2                   -0.09919  -5.52938
   3                   -0.09912  -5.38370
   4                   -0.09901  -5.23820
   5                   -0.09883  -5.09314
   6                   -0.09857  -4.95015
   7                   -0.09808  -4.80668
   8                   -0.09722  -4.66157
   9                   -0.09590  -4.51606
  10                   -0.09412  -4.37045
  11                   -0.09190  -4.22479
  12                   -0.08928  -4.07912
  13                   -0.08629  -3.93345
  14                   -0.08296  -3.78777
  15                   -0.07935  -3.64208
  16                   -0.07549  -3.49640
  17                   -0.07142  -3.35072
  18                   -0.06717  -3.20503
  19                   -0.06279  -3.05935
  20                   -0.05831  -2.91366
  21                   -0.05376  -2.76798
  22                   -0.04919  -2.62230
  23                   -0.04461  -2.47661
  24                   -0.04008  -2.33093
  25                   -0.03562  -2.18524
  26                   -0.03127  -2.03956
  27                   -0.02708  -1.89388
  28                   -0.02308  -1.74819
  29                   -0.01931  -1.60251
  30                   -0.01582  -1.45682
  31                   -0.01263  -1.31114
  32                   -0.00980  -1.16545
  33                   -0.00733  -1.01977
  34                   -0.00524  -0.87409
  35                   -0.00353  -0.72840
  36                   -0.00218  -0.58272
  37                   -0.00119  -0.43705
  38                   -0.00051  -0.29137
  39                   -0.00012  -0.14571
  40                    0.00000   0.00000
 --------------------------------------------------------------------------
 
 Total number of points:                   39
 Total number of gradient calculations:    40
 Total number of Hessian calculations:     40
 IRC-IRC-IRC-IRC-IRC-IRC-IRC-IRC-IRC-IRC-IRC-IRC-IRC-IRC-IRC-IRC-IRC-IRC
                          Input orientation:                          
 ---------------------------------------------------------------------
 Center     Atomic      Atomic             Coordinates (Angstroms)
 Number     Number       Type             X           Y           Z
 ---------------------------------------------------------------------
      1          6           0       -0.785868   -1.148689   -0.333009
      2          6           0        0.719479   -1.191942   -0.392729
      3          6           0        1.383598   -0.037533   -0.420470
      4          6           0        0.590379    1.243742   -0.390650
      5          6           0       -0.484764    1.191272    0.721672
      6          6           0       -1.257418   -0.153476    0.754679
      7          1           0       -1.205937   -2.135373   -0.142909
      8          1           0        1.229497   -2.146558   -0.408498
      9          1           0        2.464641    0.000391   -0.459962
     10          1           0        1.235637    2.108928   -0.244934
     11          1           0        0.014342    1.344623    1.678882
     12          1           0       -2.328332    0.018618    0.640242
     13          1           0       -1.116819   -0.627050    1.726701
     14          1           0       -1.175238    2.025156    0.589511
     15          1           0        0.090280    1.382485   -1.355925
     16          1           0       -1.177514   -0.820722   -1.302643
 ---------------------------------------------------------------------
                    Distance matrix (angstroms):
                    1          2          3          4          5
     1  C    0.000000
     2  C    1.507152   0.000000
     3  C    2.439037   1.332097   0.000000
     4  C    2.760635   2.439103   1.507233   0.000000
     5  C    2.584267   2.893406   2.511021   1.547884   0.000000
     6  C    1.547861   2.510592   2.892988   2.584250   1.551267
     7  H    1.089101   2.158634   3.344199   3.834911   3.512002
     8  H    2.250142   1.082433   2.114682   3.450062   3.918812
     9  H    3.449973   2.114656   1.082429   2.250241   3.393147
    10  H    3.834881   3.344249   2.158703   1.089100   2.176281
    11  H    3.302219   3.350067   2.862254   2.150572   1.090356
    12  H    2.165414   3.438260   3.860918   3.329045   2.186433
    13  H    2.150358   2.860607   3.348128   3.301145   2.171606
    14  H    3.328054   3.860630   3.438369   2.165346   1.090680
    15  H    2.867200   2.819807   2.136398   1.095949   2.164173
    16  H    1.095964   2.136429   2.819736   2.866913   2.936983
                    6          7          8          9         10
     6  C    0.000000
     7  H    2.176288   0.000000
     8  H    3.392654   2.449898   0.000000
     9  H    3.918258   4.258539   2.477422   0.000000
    10  H    3.511839   4.897528   4.258633   2.450023   0.000000
    11  H    2.171595   4.113195   4.245245   3.519315   2.403496
    12  H    1.090674   2.552013   4.294879   4.917659   4.225495
    13  H    1.090352   2.403835   3.517553   4.242880   4.111808
    14  H    2.186429   4.224616   4.917517   4.295321   2.552574
    15  H    2.937705   3.940420   3.827477   2.889727   1.753243
    16  H    2.164295   1.753310   2.889817   3.827484   3.940164
                   11         12         13         14         15
    11  H    0.000000
    12  H    2.885340   0.000000
    13  H    2.273611   1.750727   0.000000
    14  H    1.750701   2.314821   2.886314   0.000000
    15  H    3.035993   3.419722   3.872712   2.408170   0.000000
    16  H    3.872820   2.409081   3.036135   3.417495   2.542492
                   16
    16  H    0.000000
 Symmetry turned off by external request.
 Stoichiometry    C6H10
 Framework group  C1[X(C6H10)]
 Deg. of freedom    42
 Full point group                 C1      NOp   1
 Rotational constants (GHZ):           4.6792764           4.5739340           2.6377376

 **********************************************************************

            Population analysis using the SCF Density.

 **********************************************************************

 Alpha  occ. eigenvalues --  -10.53494 -10.53493 -10.53257 -10.53226 -10.53196
 Alpha  occ. eigenvalues --  -10.53083  -0.93463  -0.83456  -0.83099  -0.70834
 Alpha  occ. eigenvalues --   -0.67519  -0.57727  -0.57034  -0.54535  -0.46799
 Alpha  occ. eigenvalues --   -0.46478  -0.46369  -0.44081  -0.44028  -0.38089
 Alpha  occ. eigenvalues --   -0.37534  -0.35712  -0.29743
 Alpha virt. eigenvalues --    0.05436   0.07164   0.10160   0.11250   0.11280
 Alpha virt. eigenvalues --    0.12616   0.13690   0.15449   0.15703   0.18015
 Alpha virt. eigenvalues --    0.18369   0.20247   0.22696   0.24157   0.24365
 Alpha virt. eigenvalues --    0.25764   0.27923   0.27967   0.28772   0.29627
 Alpha virt. eigenvalues --    0.29970   0.30698   0.34879   0.36258   0.38914
 Alpha virt. eigenvalues --    0.39150   0.42019   0.43063   0.44284   0.44635
 Alpha virt. eigenvalues --    0.45230   0.46282   0.46617   0.46905   0.48718
 Alpha virt. eigenvalues --    0.49782   0.49857   0.50485   0.51915   0.52564
 Alpha virt. eigenvalues --    0.53375   0.55906   0.58050   0.61601   0.61997
 Alpha virt. eigenvalues --    0.64809   0.68741   0.69543   0.75751   0.78884
 Alpha virt. eigenvalues --    0.94547   1.39574   1.46116   1.47606   1.52633
 Alpha virt. eigenvalues --    1.54501   1.57074   1.57453   1.58305   1.59356
 Alpha virt. eigenvalues --    1.60155   1.61181   1.63051   1.67071   1.68624
 Alpha virt. eigenvalues --    1.69493   1.72062   1.74419   1.74977   1.78449
 Alpha virt. eigenvalues --    1.87084   1.91485   1.94512   1.99602   2.09962
 Alpha virt. eigenvalues --    2.36286   2.38615   2.40847   2.43482   2.49670
 Alpha virt. eigenvalues --    2.51420   2.53617   2.55361   2.66488   2.92217
 Alpha virt. eigenvalues --   21.45940  21.81508  21.98330  22.03427  22.15576
 Alpha virt. eigenvalues --   22.18727
          Condensed to atoms (all electrons):
               1          2          3          4          5          6
     1  C    5.145305   0.282395  -0.066202   0.059995  -0.057506   0.307424
     2  C    0.282395   5.118915   0.620012  -0.066051  -0.058570   0.010037
     3  C   -0.066202   0.620012   5.118513   0.282782   0.010159  -0.058151
     4  C    0.059995  -0.066051   0.282782   5.145028   0.307329  -0.057708
     5  C   -0.057506  -0.058570   0.010159   0.307329   5.308867   0.209858
     6  C    0.307424   0.010037  -0.058151  -0.057708   0.209858   5.309114
     7  H    0.423013  -0.055134   0.020043  -0.003203   0.013335  -0.052466
     8  H   -0.045501   0.368836  -0.033009   0.008538  -0.002966   0.008082
     9  H    0.008537  -0.032993   0.368764  -0.045484   0.008082  -0.002962
    10  H   -0.003202   0.020058  -0.055138   0.423003  -0.052465   0.013332
    11  H    0.001921  -0.007500   0.001983  -0.031822   0.402931  -0.043644
    12  H   -0.038945   0.003072   0.006844  -0.003472  -0.019296   0.380763
    13  H   -0.031863   0.002007  -0.007563   0.001876  -0.043604   0.402875
    14  H   -0.003570   0.006875   0.002998  -0.038849   0.380711  -0.019223
    15  H    0.008729  -0.042802  -0.005224   0.384996  -0.034763  -0.014231
    16  H    0.384955  -0.005187  -0.042795   0.008698  -0.014191  -0.034831
               7          8          9         10         11         12
     1  C    0.423013  -0.045501   0.008537  -0.003202   0.001921  -0.038945
     2  C   -0.055134   0.368836  -0.032993   0.020058  -0.007500   0.003072
     3  C    0.020043  -0.033009   0.368764  -0.055138   0.001983   0.006844
     4  C   -0.003203   0.008538  -0.045484   0.423003  -0.031822  -0.003472
     5  C    0.013335  -0.002966   0.008082  -0.052465   0.402931  -0.019296
     6  C   -0.052466   0.008082  -0.002962   0.013332  -0.043644   0.380763
     7  H    0.531866  -0.008371   0.000121   0.000001   0.000048   0.001662
     8  H   -0.008371   0.519439  -0.014340   0.000121  -0.000375  -0.000508
     9  H    0.000121  -0.014340   0.519457  -0.008371   0.001026   0.000194
    10  H    0.000001   0.000121  -0.008371   0.531910  -0.010050  -0.000642
    11  H    0.000048  -0.000375   0.001026  -0.010050   0.535568   0.005784
    12  H    0.001662  -0.000508   0.000194  -0.000642   0.005784   0.547936
    13  H   -0.010041   0.001034  -0.000378   0.000049  -0.012168  -0.029917
    14  H   -0.000642   0.000195  -0.000509   0.001688  -0.029918  -0.015359
    15  H    0.000206  -0.001091   0.005040  -0.030676   0.008190   0.002935
    16  H   -0.030657   0.005043  -0.001092   0.000208  -0.000321  -0.010696
              13         14         15         16
     1  C   -0.031863  -0.003570   0.008729   0.384955
     2  C    0.002007   0.006875  -0.042802  -0.005187
     3  C   -0.007563   0.002998  -0.005224  -0.042795
     4  C    0.001876  -0.038849   0.384996   0.008698
     5  C   -0.043604   0.380711  -0.034763  -0.014191
     6  C    0.402875  -0.019223  -0.014231  -0.034831
     7  H   -0.010041  -0.000642   0.000206  -0.030657
     8  H    0.001034   0.000195  -0.001091   0.005043
     9  H   -0.000378  -0.000509   0.005040  -0.001092
    10  H    0.000049   0.001688  -0.030676   0.000208
    11  H   -0.012168  -0.029918   0.008190  -0.000321
    12  H   -0.029917  -0.015359   0.002935  -0.010696
    13  H    0.535686   0.005807  -0.000321   0.008197
    14  H    0.005807   0.548022  -0.010740   0.002951
    15  H   -0.000321  -0.010740   0.544555   0.000528
    16  H    0.008197   0.002951   0.000528   0.544584
 Mulliken charges:
               1
     1  C   -0.375485
     2  C   -0.163972
     3  C   -0.164018
     4  C   -0.375658
     5  C   -0.357912
     6  C   -0.358271
     7  H    0.170219
     8  H    0.194871
     9  H    0.194906
    10  H    0.170172
    11  H    0.178346
    12  H    0.169643
    13  H    0.178323
    14  H    0.169563
    15  H    0.184667
    16  H    0.184606
 Sum of Mulliken charges =  -0.00000
 Mulliken charges with hydrogens summed into heavy atoms:
               1
     1  C   -0.020661
     2  C    0.030899
     3  C    0.030889
     4  C   -0.020819
     5  C   -0.010003
     6  C   -0.010304
 APT charges:
               1
     1  C   -1.016370
     2  C   -0.456622
     3  C   -0.455766
     4  C   -1.017202
     5  C   -0.888143
     6  C   -0.888334
     7  H    0.511478
     8  H    0.559035
     9  H    0.559047
    10  H    0.511406
    11  H    0.422145
    12  H    0.480818
    13  H    0.421769
    14  H    0.480605
    15  H    0.388175
    16  H    0.387960
 Sum of APT charges =  -0.00000
 APT charges with hydrogens summed into heavy atoms:
               1
     1  C   -0.116932
     2  C    0.102413
     3  C    0.103280
     4  C   -0.117622
     5  C    0.014608
     6  C    0.014253
 Electronic spatial extent (au):  <R**2>=            546.2727
 Charge=             -0.0000 electrons
 Dipole moment (field-independent basis, Debye):
    X=             -0.3039    Y=              0.1759    Z=              0.0444  Tot=              0.3539
 Quadrupole moment (field-independent basis, Debye-Ang):
   XX=            -38.0297   YY=            -37.5285   ZZ=            -40.3134
   XY=              0.4462   XZ=              0.3032   YZ=             -0.2473
 Traceless Quadrupole moment (field-independent basis, Debye-Ang):
   XX=              0.5942   YY=              1.0954   ZZ=             -1.6896
   XY=              0.4462   XZ=              0.3032   YZ=             -0.2473
 Octapole moment (field-independent basis, Debye-Ang**2):
  XXX=              4.6988  YYY=             -4.0865  ZZZ=              1.4478  XYY=              1.6033
  XXY=              0.4219  XXZ=             -1.1343  XZZ=             -1.5437  YZZ=              0.9270
  YYZ=             -0.2859  XYZ=              0.5244
 Hexadecapole moment (field-independent basis, Debye-Ang**3):
 XXXX=           -285.9835 YYYY=           -315.1139 ZZZZ=           -146.8733 XXXY=            -10.3182
 XXXZ=             42.6794 YYYX=            -10.6067 YYYZ=            -23.0224 ZZZX=             48.8258
 ZZZY=            -25.6686 XXYY=           -100.2775 XXZZ=            -79.0588 YYZZ=            -81.6780
 XXYZ=             -7.3203 YYXZ=             14.3380 ZZXY=             -1.3198
 N-N= 2.371928072683D+02 E-N=-1.017314187265D+03  KE= 2.334076965573D+02
  Exact polarizability:   0.000   0.000   0.000   0.000   0.000   0.000
 Approx polarizability:  74.202   6.608  81.872   0.064  -0.577  63.207

 This type of calculation cannot be archived.


 THE GREAT THING ABOUT BEING IMPERFECT IS THE JOY IT BRINGS OTHERS.
   -- SIGN OUTSIDE LAKE AGASSIZ JR. HIGH SCHOOL, FARGO, N.D.
 Job cpu time:       0 days  5 hours 16 minutes 22.3 seconds.
 Elapsed time:       0 days  0 hours 20 minutes  4.7 seconds.
 File lengths (MBytes):  RWF=     30 Int=      0 D2E=      0 Chk=      5 Scr=      1
 Normal termination of Gaussian 16 at Wed Apr 15 18:46:58 2020.
