 Entering Gaussian System, Link 0=/opt/g09E01ES64L/g09/g09
 Initial command:
 /opt/g09E01ES64L/g09/l1.exe "/home/scratch/Gau-1472.inp" -scrdir="/home/scratch/"
 Entering Link 1 = /opt/g09E01ES64L/g09/l1.exe PID=      1473.
  
 Copyright (c) 1988,1990,1992,1993,1995,1998,2003,2009,2015,
            Gaussian, Inc.  All Rights Reserved.
  
 This is part of the Gaussian(R) 09 program.  It is based on
 the Gaussian(R) 03 system (copyright 2003, Gaussian, Inc.),
 the Gaussian(R) 98 system (copyright 1998, Gaussian, Inc.),
 the Gaussian(R) 94 system (copyright 1995, Gaussian, Inc.),
 the Gaussian 92(TM) system (copyright 1992, Gaussian, Inc.),
 the Gaussian 90(TM) system (copyright 1990, Gaussian, Inc.),
 the Gaussian 88(TM) system (copyright 1988, Gaussian, Inc.),
 the Gaussian 86(TM) system (copyright 1986, Carnegie Mellon
 University), and the Gaussian 82(TM) system (copyright 1983,
 Carnegie Mellon University). Gaussian is a federally registered
 trademark of Gaussian, Inc.
  
 This software contains proprietary and confidential information,
 including trade secrets, belonging to Gaussian, Inc.
  
 This software is provided under written license and may be
 used, copied, transmitted, or stored only in accord with that
 written license.
  
 The following legend is applicable only to US Government
 contracts under FAR:
  
                    RESTRICTED RIGHTS LEGEND
  
 Use, reproduction and disclosure by the US Government is
 subject to restrictions as set forth in subparagraphs (a)
 and (c) of the Commercial Computer Software - Restricted
 Rights clause in FAR 52.227-19.
  
 Gaussian, Inc.
 340 Quinnipiac St., Bldg. 40, Wallingford CT 06492
  
  
 ---------------------------------------------------------------
 Warning -- This program may not be used in any manner that
 competes with the business of Gaussian, Inc. or will provide
 assistance to any competitor of Gaussian, Inc.  The licensee
 of this program is prohibited from giving any competitor of
 Gaussian, Inc. access to this program.  By using this program,
 the user acknowledges that Gaussian, Inc. is engaged in the
 business of creating and licensing software in the field of
 computational chemistry and represents and warrants to the
 licensee that it is not a competitor of Gaussian, Inc. and that
 it will not use this program in any manner prohibited above.
 ---------------------------------------------------------------
  

 Cite this work as:
 Gaussian 09, Revision E.01,
 M. J. Frisch, G. W. Trucks, H. B. Schlegel, G. E. Scuseria, 
 M. A. Robb, J. R. Cheeseman, G. Scalmani, V. Barone, B. Mennucci, 
 G. A. Petersson, H. Nakatsuji, M. Caricato, X. Li, H. P. Hratchian, 
 A. F. Izmaylov, J. Bloino, G. Zheng, J. L. Sonnenberg, M. Hada, 
 M. Ehara, K. Toyota, R. Fukuda, J. Hasegawa, M. Ishida, T. Nakajima, 
 Y. Honda, O. Kitao, H. Nakai, T. Vreven, J. A. Montgomery, Jr., 
 J. E. Peralta, F. Ogliaro, M. Bearpark, J. J. Heyd, E. Brothers, 
 K. N. Kudin, V. N. Staroverov, T. Keith, R. Kobayashi, J. Normand, 
 K. Raghavachari, A. Rendell, J. C. Burant, S. S. Iyengar, J. Tomasi, 
 M. Cossi, N. Rega, J. M. Millam, M. Klene, J. E. Knox, J. B. Cross, 
 V. Bakken, C. Adamo, J. Jaramillo, R. Gomperts, R. E. Stratmann, 
 O. Yazyev, A. J. Austin, R. Cammi, C. Pomelli, J. W. Ochterski, 
 R. L. Martin, K. Morokuma, V. G. Zakrzewski, G. A. Voth, 
 P. Salvador, J. J. Dannenberg, S. Dapprich, A. D. Daniels, 
 O. Farkas, J. B. Foresman, J. V. Ortiz, J. Cioslowski, 
 and D. J. Fox, Gaussian, Inc., Wallingford CT, 2013.
 
 ******************************************
 Gaussian 09:  ES64L-G09RevE.01 30-Nov-2015
                25-Apr-2018 
 ******************************************
 %nprocshared=2
 Will use up to    2 processors via shared memory.
 %mem=4GB
 %chk=dairc1.chk
 ----------------------------------------------------------------------
 # M062X/ChkBasis NoSymm SCF=(NoVarAcc,XQC) Int=(Grid=Ultrafine,acc2e=1
 1) Geom=AllCheck Guess=Read IRC=(CalcAll,Phase=(5,6),MaxPoints=100,Ste
 pSize=15)
 ----------------------------------------------------------------------
 1/10=4,14=-1,18=10,26=4,29=7,38=1,39=15,42=100,44=3,71=1,101=5,102=6/1,23;
 2/12=2,15=1,29=1,40=1/2;
 3/5=7,6=2,11=2,14=-4,16=1,25=1,30=1,67=1,71=2,74=-55,75=-5,116=-2,140=1/1,2,3;
 4/5=1/1;
 5/5=2,8=3,13=1,38=6,87=11/2,8;
 8/6=4,10=90,11=11,87=11/1;
 11/6=1,8=1,9=11,15=111,16=1,31=1,87=11/1,2,10;
 10/6=1,13=1,31=1,87=11/2;
 6/7=2,8=2,9=2,10=2,18=1,28=1/1;
 7/10=1,25=1,30=1,87=11/1,2,3,16;
 1/10=4,14=-1,18=10,26=4,39=15,42=100,44=3,71=1,101=5,102=6/23(2);
 2/15=1,29=1/2;
 99/5=20/99;
 2/15=1,29=1/2;
 3/5=7,6=1,11=2,14=-2,16=1,25=1,30=1,71=2,74=-55,75=-5,82=7,140=1/1,2,3;
 4/5=5,16=3,69=1/1;
 5/5=2,8=3,13=1,38=1,87=11/2,8;
 8/6=4,10=90,11=11,87=11/1;
 11/6=1,8=1,9=11,15=111,16=1,31=1,87=11/1,2,10;
 10/6=1,13=1,31=1,87=11/2;
 7/10=1,25=1,30=1,87=11/1,2,3,16;
 1/10=4,14=-1,18=10,26=4,39=15,42=100,44=3,71=1,101=5,102=6/23(-8);
 2/15=1,29=1/2;
 6/7=2,8=2,9=2,10=2,18=1,19=2,28=1/1;
 99/5=20/99;
 Structure from the checkpoint file:  "dairc1.chk"
 --------------------------------------------------------------
 Geometrical optimization for a DA reaction C2H4+C4H6 --> C6H10
 --------------------------------------------------------------
 Charge =  0 Multiplicity = 1
 Redundant internal coordinates found in file.
 C,0,1.1481306456,1.2918300122,2.3207023322
 C,0,2.5086288926,1.3470028447,2.5184452926
 C,0,3.2087338783,2.5662806624,2.4896726749
 C,0,2.5662330204,3.761540664,2.262416431
 C,0,1.0850687701,3.8052953397,3.9582303743
 C,0,0.3979443509,2.6086116318,3.9864674614
 H,0,0.6125945706,0.3639944415,2.4713192851
 H,0,3.0191705904,0.4722999783,2.9018189644
 H,0,4.2291308952,2.5795228328,2.8520918445
 H,0,3.1002136544,4.6963403233,2.3690812235
 H,0,1.8774203921,3.9941723878,4.6661044261
 H,0,-0.6058636932,2.5495789115,3.5882762601
 H,0,0.6488996306,1.854610058,4.7165938393
 H,0,0.6216906331,4.687459039,3.5378266675
 H,0,1.6875232297,3.8097103991,1.6365388318
 H,0,0.6506595693,2.0039475237,1.6791533913
 Recover connectivity data from disk.
 IRC-IRC-IRC-IRC-IRC-IRC-IRC-IRC-IRC-IRC-IRC-IRC-IRC-IRC-IRC-IRC-IRC-IRC
 ------------------------------------------------------------------------
 INPUT DATA FOR L123
 ------------------------------------------------------------------------
 GENERAL PARAMETERS:
 Follow reaction path in both directions.
 Maximum points per path      = 100
 Step size                    =   0.150 bohr
 Integration scheme           = HPC                                 
    Redo corrector integration= Yes                                 
    DWI Weight Power          =  2
    DWI will use Hessian update vectors when possible.
    Max correction cycles     =  20
 Initial Hessian              = CalcFC
 Hessian evaluation           = Analytic at all predictor steps
                              = Update at all corrector steps
 Hessian updating method      = Bofill                              
 ------------------------------------------------------------------------
 IRC-IRC-IRC-IRC-IRC-IRC-IRC-IRC-IRC-IRC-IRC-IRC-IRC-IRC-IRC-IRC-IRC-IRC
                          Input orientation:                          
 ---------------------------------------------------------------------
 Center     Atomic      Atomic             Coordinates (Angstroms)
 Number     Number       Type             X           Y           Z
 ---------------------------------------------------------------------
      1          6           0        1.148131    1.291830    2.320702
      2          6           0        2.508629    1.347003    2.518445
      3          6           0        3.208734    2.566281    2.489673
      4          6           0        2.566233    3.761541    2.262416
      5          6           0        1.085069    3.805295    3.958230
      6          6           0        0.397944    2.608612    3.986467
      7          1           0        0.612595    0.363994    2.471319
      8          1           0        3.019171    0.472300    2.901819
      9          1           0        4.229131    2.579523    2.852092
     10          1           0        3.100214    4.696340    2.369081
     11          1           0        1.877420    3.994172    4.666104
     12          1           0       -0.605864    2.549579    3.588276
     13          1           0        0.648900    1.854610    4.716594
     14          1           0        0.621691    4.687459    3.537827
     15          1           0        1.687523    3.809710    1.636539
     16          1           0        0.650660    2.003948    1.679153
 ---------------------------------------------------------------------
                    Distance matrix (angstroms):
                    1          2          3          4          5
     1  C    0.000000
     2  C    1.375900   0.000000
     3  C    2.428757   1.406276   0.000000
     4  C    2.848488   2.428757   1.375899   0.000000
     5  C    3.000497   3.184762   2.863874   2.252010   0.000000
     6  C    2.251992   2.863867   3.184764   3.000512   1.380213
     7  H    1.081833   2.136229   3.404459   3.924750   3.778451
     8  H    2.123703   1.082928   2.142558   3.381286   3.995699
     9  H    3.381285   2.142558   1.082928   2.123703   3.551223
    10  H    3.924750   3.404459   2.136229   1.081833   2.716646
    11  H    3.651771   3.466752   2.923718   2.511234   1.079158
    12  H    2.503033   3.505823   3.969681   3.645402   2.138444
    13  H    2.511225   2.923716   3.466757   3.651786   2.137880
    14  H    3.645384   3.969675   3.505826   2.503046   1.081513
    15  H    2.664347   2.741697   2.141970   1.079895   2.398588
    16  H    1.079895   2.141970   2.741697   2.664348   2.937304
                    6          7          8          9         10
     6  C    0.000000
     7  H    2.716626   0.000000
     8  H    3.551213   2.447176   0.000000
     9  H    3.995703   4.258273   2.430404   0.000000
    10  H    3.778466   4.996791   4.258274   2.447176   0.000000
    11  H    2.137881   4.426631   4.101205   3.289744   2.695288
    12  H    1.081514   2.740258   4.234051   4.890811   4.453092
    13  H    1.079158   2.695276   3.289738   4.101210   4.426645
    14  H    2.138445   4.453074   4.890806   4.234059   2.740278
    15  H    2.937315   3.704766   3.809531   3.074199   1.821655
    16  H    2.398579   1.821654   3.074199   3.809531   3.704766
                   11         12         13         14         15
    11  H    0.000000
    12  H    3.068430   0.000000
    13  H    2.467699   1.824969   0.000000
    14  H    1.824970   2.465759   3.068430   0.000000
    15  H    3.041111   3.264481   3.793138   2.349753   0.000000
    16  H    3.793127   2.349748   3.041110   3.264466   2.082710
                   16
    16  H    0.000000
 Symmetry turned off by external request.
 Stoichiometry    C6H10
 Framework group  C1[X(C6H10)]
 Deg. of freedom    42
 Full point group                 C1      NOp   1
 Rotational constants (GHZ):      4.3811163      3.5293930      2.3019056
 Basis read from chk: "dairc1.chk" (5D, 7F)
 Pseudo-potential data read from chk file.
   114 basis functions,   224 primitive gaussians,   114 cartesian basis functions
    23 alpha electrons       23 beta electrons
       nuclear repulsion energy       225.5323325019 Hartrees.
 NAtoms=   16 NActive=   16 NUniq=   16 SFac= 1.00D+00 NAtFMM=   60 NAOKFM=F Big=F
 Integral buffers will be    131072 words long.
 Raffenetti 2 integral format.
 Two-electron integral symmetry is turned off.
 One-electron integrals computed using PRISM.
   1 Symmetry operations used in ECPInt.
 ECPInt:  NShTT=    3081 NPrTT=   11790 LenC2=    3049 LenP2D=    9034.
 LDataN:  DoStor=T MaxTD1= 2 Len=   12
 NBasis=   114 RedAO= T EigKep=  8.37D-05  NBF=   114
 NBsUse=   114 1.00D-06 EigRej= -1.00D+00 NBFU=   114
 Initial guess from the checkpoint file:  "dairc1.chk"
 B after Tr=     3.341113    4.900758    5.571998
         Rot=    0.269790    0.250331    0.927756    0.061775 Ang= 148.70 deg.
 Keep R1 ints in memory in canonical form, NReq=22497269.
 Requested convergence on RMS density matrix=1.00D-08 within  64 cycles.
 Requested convergence on MAX density matrix=1.00D-06.
 Requested convergence on             energy=1.00D-06.
 No special actions if energy rises.
 SCF Done:  E(RM062X) =  -234.433257572     A.U. after    5 cycles
            NFock=  5  Conv=0.48D-08     -V/T= 2.0046
 QCSCF skips out because SCF is already converged.
 DoSCS=F DFT=T ScalE2(SS,OS)=  1.000000  1.000000
 Range of M.O.s used for correlation:     1   114
 NBasis=   114 NAE=    23 NBE=    23 NFC=     0 NFV=     0
 NROrb=    114 NOA=    23 NOB=    23 NVA=    91 NVB=    91

 **** Warning!!: The largest alpha MO coefficient is  0.30727468D+02

   1 Symmetry operations used in ECPInt.
 ECPInt:  NShTT=    3081 NPrTT=   11790 LenC2=    3049 LenP2D=    9034.
 LDataN:  DoStor=T MaxTD1= 3 Len=   28
 Symmetrizing basis deriv contribution to polar:
 IMax=3 JMax=2 DiffMx= 0.00D+00
 G2DrvN: will do    17 centers at a time, making    1 passes.
 Calling FoFCou, ICntrl=  3107 FMM=F I1Cent=   0 AccDes= 1.00D-11.
 End of G2Drv F.D. properties file   721 does not exist.
 End of G2Drv F.D. properties file   722 does not exist.
 End of G2Drv F.D. properties file   788 does not exist.
          IDoAtm=1111111111111111
          Differentiating once with respect to nuclear coordinates.
 Keep R1 ints in memory in canonical form, NReq=22503793.
          There are    51 degrees of freedom in the 1st order CPHF.  IDoFFX=6 NUNeed=     0.
     45 vectors produced by pass  0 Test12= 4.10D-15 1.96D-09 XBig12= 7.28D-02 9.74D-02.
 AX will form    45 AO Fock derivatives at one time.
     45 vectors produced by pass  1 Test12= 4.10D-15 1.96D-09 XBig12= 7.43D-03 1.94D-02.
     45 vectors produced by pass  2 Test12= 4.10D-15 1.96D-09 XBig12= 8.36D-05 1.49D-03.
     45 vectors produced by pass  3 Test12= 4.10D-15 1.96D-09 XBig12= 4.27D-07 1.05D-04.
     45 vectors produced by pass  4 Test12= 4.10D-15 1.96D-09 XBig12= 1.40D-09 4.68D-06.
     45 vectors produced by pass  5 Test12= 4.10D-15 1.96D-09 XBig12= 3.62D-12 2.48D-07.
     16 vectors produced by pass  6 Test12= 4.10D-15 1.96D-09 XBig12= 1.12D-14 1.39D-08.
 InvSVY:  IOpt=1 It=  1 EMax= 2.50D-16
 Solved reduced A of dimension   286 with    51 vectors.
 End of Minotr F.D. properties file   721 does not exist.
 End of Minotr F.D. properties file   722 does not exist.
 End of Minotr F.D. properties file   788 does not exist.

 **********************************************************************

            Population analysis using the SCF density.

 **********************************************************************

 Alpha  occ. eigenvalues --  -10.54609 -10.54608 -10.54011 -10.53928 -10.53580
 Alpha  occ. eigenvalues --  -10.53510  -0.91703  -0.84819  -0.81765  -0.71161
 Alpha  occ. eigenvalues --   -0.66626  -0.59905  -0.57238  -0.54162  -0.50170
 Alpha  occ. eigenvalues --   -0.47766  -0.47542  -0.43142  -0.42111  -0.41198
 Alpha  occ. eigenvalues --   -0.40434  -0.27991  -0.27822
 Alpha virt. eigenvalues --    0.01214   0.04267   0.07813   0.09714   0.10729
 Alpha virt. eigenvalues --    0.12839   0.13488   0.13554   0.14848   0.15317
 Alpha virt. eigenvalues --    0.17087   0.18391   0.22503   0.22938   0.23097
 Alpha virt. eigenvalues --    0.24765   0.26325   0.27349   0.27892   0.27983
 Alpha virt. eigenvalues --    0.28372   0.30763   0.34662   0.35762   0.36251
 Alpha virt. eigenvalues --    0.36943   0.38138   0.40554   0.43243   0.44455
 Alpha virt. eigenvalues --    0.45897   0.46413   0.46514   0.47148   0.48034
 Alpha virt. eigenvalues --    0.48548   0.50179   0.52653   0.54222   0.54278
 Alpha virt. eigenvalues --    0.57798   0.57836   0.59159   0.60947   0.63285
 Alpha virt. eigenvalues --    0.64055   0.67956   0.69263   0.70316   0.78998
 Alpha virt. eigenvalues --    0.82378   1.41810   1.45748   1.47729   1.48314
 Alpha virt. eigenvalues --    1.51665   1.53693   1.54969   1.56104   1.57248
 Alpha virt. eigenvalues --    1.58551   1.58722   1.59967   1.61311   1.62252
 Alpha virt. eigenvalues --    1.63202   1.67314   1.67373   1.71943   1.78291
 Alpha virt. eigenvalues --    1.83632   1.83840   1.94733   2.01416   2.05028
 Alpha virt. eigenvalues --    2.33898   2.35825   2.36784   2.41930   2.43895
 Alpha virt. eigenvalues --    2.47691   2.53894   2.60028   2.68694   2.78493
 Alpha virt. eigenvalues --   21.41447  21.63477  21.74093  22.00018  22.10574
 Alpha virt. eigenvalues --   22.26692
          Condensed to atoms (all electrons):
               1          2          3          4          5          6
     1  C    5.275667   0.579778  -0.103916  -0.011847  -0.065673   0.082996
     2  C    0.579778   4.958150   0.479383  -0.103920  -0.072896  -0.029376
     3  C   -0.103916   0.479383   4.958195   0.579820  -0.029369  -0.072889
     4  C   -0.011847  -0.103920   0.579820   5.275564   0.082987  -0.065659
     5  C   -0.065673  -0.072896  -0.029369   0.082987   5.290162   0.532121
     6  C    0.082996  -0.029376  -0.072889  -0.065659   0.532121   5.290203
     7  H    0.358763  -0.025507   0.015501   0.002058   0.005935  -0.010859
     8  H   -0.041826   0.377865  -0.042465   0.006081  -0.001251  -0.001512
     9  H    0.006082  -0.042452   0.377847  -0.041824  -0.001511  -0.001251
    10  H    0.002059   0.015503  -0.025517   0.358765  -0.010860   0.005935
    11  H    0.002407  -0.003970   0.003122  -0.015553   0.373865  -0.021783
    12  H   -0.030159  -0.001840   0.006606   0.002910  -0.039295   0.387853
    13  H   -0.015563   0.003120  -0.003971   0.002408  -0.021781   0.373864
    14  H    0.002910   0.006606  -0.001843  -0.030159   0.387852  -0.039293
    15  H    0.015178  -0.023559  -0.023836   0.393563  -0.038750  -0.019783
    16  H    0.393556  -0.023842  -0.023559   0.015186  -0.019781  -0.038755
               7          8          9         10         11         12
     1  C    0.358763  -0.041826   0.006082   0.002059   0.002407  -0.030159
     2  C   -0.025507   0.377865  -0.042452   0.015503  -0.003970  -0.001840
     3  C    0.015501  -0.042465   0.377847  -0.025517   0.003122   0.006606
     4  C    0.002058   0.006081  -0.041824   0.358765  -0.015553   0.002910
     5  C    0.005935  -0.001251  -0.001511  -0.010860   0.373865  -0.039295
     6  C   -0.010859  -0.001512  -0.001251   0.005935  -0.021783   0.387853
     7  H    0.514336  -0.010692  -0.000066  -0.000079  -0.000018   0.002658
     8  H   -0.010692   0.545694  -0.008476  -0.000066  -0.000147  -0.000329
     9  H   -0.000066  -0.008476   0.545698  -0.010692   0.001945   0.000128
    10  H   -0.000079  -0.000066  -0.010692   0.514357  -0.002921  -0.000335
    11  H   -0.000018  -0.000147   0.001945  -0.002921   0.512673   0.006335
    12  H    0.002658  -0.000329   0.000128  -0.000335   0.006335   0.513403
    13  H   -0.002921   0.001946  -0.000147  -0.000018  -0.009220  -0.028195
    14  H   -0.000335   0.000128  -0.000329   0.002659  -0.028194  -0.009500
    15  H    0.000297  -0.000078   0.006329  -0.030357   0.005734   0.002813
    16  H   -0.030349   0.006328  -0.000079   0.000297  -0.000126  -0.005897
              13         14         15         16
     1  C   -0.015563   0.002910   0.015178   0.393556
     2  C    0.003120   0.006606  -0.023559  -0.023842
     3  C   -0.003971  -0.001843  -0.023836  -0.023559
     4  C    0.002408  -0.030159   0.393563   0.015186
     5  C   -0.021781   0.387852  -0.038750  -0.019781
     6  C    0.373864  -0.039293  -0.019783  -0.038755
     7  H   -0.002921  -0.000335   0.000297  -0.030349
     8  H    0.001946   0.000128  -0.000078   0.006328
     9  H   -0.000147  -0.000329   0.006329  -0.000079
    10  H   -0.000018   0.002659  -0.030357   0.000297
    11  H   -0.009220  -0.028194   0.005734  -0.000126
    12  H   -0.028195  -0.009500   0.002813  -0.005897
    13  H    0.512676   0.006334  -0.000126   0.005734
    14  H    0.006334   0.513410  -0.005897   0.002813
    15  H   -0.000126  -0.005897   0.529029  -0.007034
    16  H    0.005734   0.002813  -0.007034   0.529014
 Mulliken charges:
               1
     1  C   -0.450413
     2  C   -0.093041
     3  C   -0.093108
     4  C   -0.450378
     5  C   -0.371755
     6  C   -0.371812
     7  H    0.181278
     8  H    0.168799
     9  H    0.168796
    10  H    0.181270
    11  H    0.175851
    12  H    0.192846
    13  H    0.175858
    14  H    0.192838
    15  H    0.196478
    16  H    0.196493
 Sum of Mulliken charges =  -0.00000
 Mulliken charges with hydrogens summed into heavy atoms:
               1
     1  C   -0.072641
     2  C    0.075758
     3  C    0.075688
     4  C   -0.072630
     5  C   -0.003066
     6  C   -0.003108
 APT charges:
               1
     1  C   -0.571125
     2  C   -0.441696
     3  C   -0.637377
     4  C   -0.659751
     5  C   -1.347188
     6  C   -0.945213
     7  H    0.183778
     8  H    0.472268
     9  H    0.902434
    10  H    1.110238
    11  H    0.937080
    12  H   -0.043816
    13  H    0.442429
    14  H    0.449545
    15  H   -0.132834
    16  H    0.281228
 Sum of APT charges =  -0.00000
 APT charges with hydrogens summed into heavy atoms:
               1
     1  C   -0.106119
     2  C    0.030572
     3  C    0.265057
     4  C    0.317653
     5  C    0.039437
     6  C   -0.546600
 Electronic spatial extent (au):  <R**2>=           3654.5262
 Charge=             -0.0000 electrons
 Dipole moment (field-independent basis, Debye):
    X=             -0.3470    Y=              0.2055    Z=              0.2670  Tot=              0.4837
 Quadrupole moment (field-independent basis, Debye-Ang):
   XX=            -39.2562   YY=            -35.9896   ZZ=            -40.7470
   XY=              0.4536   XZ=              2.7224   YZ=             -0.7200
 Traceless Quadrupole moment (field-independent basis, Debye-Ang):
   XX=             -0.5919   YY=              2.6746   ZZ=             -2.0827
   XY=              0.4536   XZ=              2.7224   YZ=             -0.7200
 Octapole moment (field-independent basis, Debye-Ang**2):
  XXX=           -203.7636  YYY=           -283.7442  ZZZ=           -364.8444  XYY=            -60.3736
  XXY=            -98.8847  XXZ=           -103.5067  XZZ=            -56.7782  YZZ=           -115.2448
  YYZ=           -113.3495  XYZ=              8.8357
 Hexadecapole moment (field-independent basis, Debye-Ang**3):
 XXXX=          -1025.2906 YYYY=          -1797.5434 ZZZZ=          -2364.7869 XXXY=           -525.1963
 XXXZ=           -499.2307 YYYX=           -483.8044 YYYZ=           -900.2518 ZZZX=           -504.2608
 ZZZY=          -1029.2338 XXYY=           -468.3449 XXZZ=           -504.5463 YYZZ=           -734.3697
 XXYZ=           -275.5698 YYXZ=           -138.1992 ZZXY=           -144.1257
 N-N= 2.255323325019D+02 E-N=-9.937248987583D+02  KE= 2.333521246275D+02
  Exact polarizability:   0.000   0.000   0.000   0.000   0.000   0.000
 Approx polarizability: 104.521   3.737 109.558 -12.734   6.415  73.585
   1 Symmetry operations used in ECPInt.
 ECPInt:  NShTT=    3081 NPrTT=   11790 LenC2=    3049 LenP2D=    9034.
 LDataN:  DoStor=T MaxTD1= 4 Len=   56
 Calling FoFJK, ICntrl=    100127 FMM=F ISym2X=0 I1Cent= 0 IOpClX= 0 NMat=1 NMatS=1 NMatT=0.
 -------------------------------------------------------------------
 Center     Atomic                   Forces (Hartrees/Bohr)
 Number     Number              X              Y              Z
 -------------------------------------------------------------------
      1        6           0.000009140    0.000015318    0.000008464
      2        6          -0.000039613   -0.000001688    0.000012077
      3        6          -0.000005090   -0.000012658   -0.000022745
      4        6           0.000025603   -0.000016165   -0.000014033
      5        6           0.000016481    0.000042453    0.000013375
      6        6          -0.000007632   -0.000023668    0.000000663
      7        1           0.000002200   -0.000001750   -0.000008841
      8        1           0.000001215    0.000005454    0.000010825
      9        1          -0.000005577   -0.000003994    0.000018418
     10        1          -0.000005189   -0.000000583   -0.000010650
     11        1           0.000012565   -0.000000432    0.000001335
     12        1          -0.000005594    0.000006067   -0.000005723
     13        1           0.000000893   -0.000010521   -0.000007854
     14        1          -0.000002133   -0.000009883   -0.000014166
     15        1          -0.000008703    0.000002217    0.000001918
     16        1           0.000011435    0.000009832    0.000016937
 -------------------------------------------------------------------
 Cartesian Forces:  Max     0.000042453 RMS     0.000013612
 IRC-IRC-IRC-IRC-IRC-IRC-IRC-IRC-IRC-IRC-IRC-IRC-IRC-IRC-IRC-IRC-IRC-IRC
          ******** Start new reaction path calculation ********
 Setting the phase of the TS vector:      5      6      0      0
 Supplied step size of   0.1500 bohr.
    Integration on MW PES will use step size of   0.4372 sqrt(amu)*bohr.
 Point Number:   0          Path Number:   1
 Calculating another point on the path.
 IRC-IRC-IRC-IRC-IRC-IRC-IRC-IRC-IRC-IRC-IRC-IRC-IRC-IRC-IRC-IRC-IRC-IRC
                          Input orientation:                          
 ---------------------------------------------------------------------
 Center     Atomic      Atomic             Coordinates (Angstroms)
 Number     Number       Type             X           Y           Z
 ---------------------------------------------------------------------
      1          6           0       -0.654757   -1.270377   -0.594013
      2          6           0        0.722237   -1.228342   -0.416811
      3          6           0        1.416146   -0.019831   -0.445301
      4          6           0        0.754465    1.183751   -0.651988
      5          6           0       -0.683531    1.221866    0.995906
      6          6           0       -1.379249    0.010210    1.024489
      7          1           0       -1.184713   -2.203276   -0.452270
      8          1           0        1.230591   -2.110018   -0.046617
      9          1           0        2.441197   -0.001640   -0.096359
     10          1           0        1.295406    2.115989   -0.554217
     11          1           0        0.080799    1.415228    1.734531
     12          1           0       -2.397495   -0.026198    0.658481
     13          1           0       -1.145670   -0.720758    1.784930
     14          1           0       -1.173107    2.106249    0.608225
     15          1           0       -0.097183    1.229471   -1.317444
     16          1           0       -1.137223   -0.581920   -1.274814
 ---------------------------------------------------------------------
                    Distance matrix (angstroms):
                    1          2          3          4          5
     1  C    0.000000
     2  C    1.388985   0.000000
     3  C    2.423761   1.393851   0.000000
     4  C    2.830550   2.423745   1.388939   0.000000
     5  C    2.956340   3.158397   2.833289   2.187427   0.000000
     6  C    2.187314   2.833303   3.158389   2.956436   1.397480
     7  H    1.082241   2.142011   3.395872   3.907973   3.752331
     8  H    2.135223   1.082968   2.135945   3.382615   3.981478
     9  H    3.382645   2.135957   1.082969   2.135168   3.529013
    10  H    3.907966   3.395873   2.142001   1.082241   2.668057
    11  H    3.629826   3.468167   2.931589   2.490559   1.080350
    12  H    2.480697   3.511998   3.970168   3.621623   2.146903
    13  H    2.490471   2.931618   3.468159   3.629909   2.147072
    14  H    3.621556   3.970204   3.512031   2.480861   1.082643
    15  H    2.661481   2.742888   2.147453   1.081770   2.386514
    16  H    1.081774   2.147468   2.742941   2.661576   2.935243
                    6          7          8          9         10
     6  C    0.000000
     7  H    2.667992   0.000000
     8  H    3.529009   2.450907   0.000000
     9  H    3.981489   4.256889   2.431728   0.000000
    10  H    3.752386   4.981710   4.256876   2.450883   0.000000
    11  H    2.147086   4.413297   4.113620   3.306230   2.684158
    12  H    1.082641   2.728420   4.242933   4.897278   4.438144
    13  H    1.080344   2.684110   3.306240   4.113636   4.413343
    14  H    2.146893   4.438106   4.897294   4.242974   2.728538
    15  H    2.935122   3.703376   3.811846   3.074095   1.818718
    16  H    2.386628   1.818689   3.074101   3.811899   3.703466
                   11         12         13         14         15
    11  H    0.000000
    12  H    3.062276   0.000000
    13  H    2.463575   1.821638   0.000000
    14  H    1.821635   2.459468   3.062247   0.000000
    15  H    3.062798   3.282136   3.811488   2.373721   0.000000
    16  H    3.811606   2.373761   3.062904   3.282282   2.089171
                   16
    16  H    0.000000
 Symmetry turned off by external request.
 Stoichiometry    C6H10
 Framework group  C1[X(C6H10)]
 Deg. of freedom    42
 Full point group                 C1      NOp   1
 Rotational constants (GHZ):      4.4134372      3.6047085      2.3379109
 Basis read from rwf:  (5D, 7F)
 Pseudo-potential data read from rwf file.
   114 basis functions,   224 primitive gaussians,   114 cartesian basis functions
    23 alpha electrons       23 beta electrons
       nuclear repulsion energy       226.3057348836 Hartrees.
 NAtoms=   16 NActive=   16 NUniq=   16 SFac= 1.00D+00 NAtFMM=   60 NAOKFM=F Big=F
 Integral buffers will be    131072 words long.
 Raffenetti 2 integral format.
 Two-electron integral symmetry is turned off.
 One-electron integrals computed using PRISM.
   1 Symmetry operations used in ECPInt.
 ECPInt:  NShTT=    3081 NPrTT=   11790 LenC2=    3051 LenP2D=    9046.
 LDataN:  DoStor=T MaxTD1= 2 Len=   12
 NBasis=   114 RedAO= T EigKep=  7.72D-05  NBF=   114
 NBsUse=   114 1.00D-06 EigRej= -1.00D+00 NBFU=   114
 Initial guess from the checkpoint file:  "dairc1.chk"
 B after Tr=    -3.384637   -4.875262   -5.550623
         Rot=    1.000000   -0.000050   -0.000087    0.000001 Ang=  -0.01 deg.
 ExpMin= 9.52D-02 ExpMax= 1.36D+04 ExpMxC= 4.63D+02 IAcc=2 IRadAn=         4 AccDes= 0.00D+00
 Harris functional with IExCor= 1009 and IRadAn=       4 diagonalized for initial guess.
 HarFok:  IExCor= 1009 AccDes= 0.00D+00 IRadAn=         4 IDoV= 1 UseB2=F ITyADJ=14
 ICtDFT=  3500011 ScaDFX=  1.000000  1.000000  1.000000  1.000000
 FoFCou: FMM=F IPFlag=           0 FMFlag=      100000 FMFlg1=           0
         NFxFlg=           0 DoJE=T BraDBF=F KetDBF=T FulRan=T
         wScrn=  0.000000 ICntrl=     500 IOpCl=  0 I1Cent=   200000004 NGrid=           0
         NMat0=    1 NMatS0=      1 NMatT0=    0 NMatD0=    1 NMtDS0=    0 NMtDT0=    0
 Symmetry not used in FoFCou.
 Keep R1 ints in memory in canonical form, NReq=22497437.
 Requested convergence on RMS density matrix=1.00D-08 within  64 cycles.
 Requested convergence on MAX density matrix=1.00D-06.
 Requested convergence on             energy=1.00D-06.
 No special actions if energy rises.
 SCF Done:  E(RM062X) =  -234.434437333     A.U. after   11 cycles
            NFock= 11  Conv=0.39D-08     -V/T= 2.0050
 QCSCF skips out because SCF is already converged.
 DoSCS=F DFT=T ScalE2(SS,OS)=  1.000000  1.000000
 Range of M.O.s used for correlation:     1   114
 NBasis=   114 NAE=    23 NBE=    23 NFC=     0 NFV=     0
 NROrb=    114 NOA=    23 NOB=    23 NVA=    91 NVB=    91

 **** Warning!!: The largest alpha MO coefficient is  0.29711517D+02

   1 Symmetry operations used in ECPInt.
 ECPInt:  NShTT=    3081 NPrTT=   11790 LenC2=    3051 LenP2D=    9046.
 LDataN:  DoStor=T MaxTD1= 3 Len=   28
 Symmetrizing basis deriv contribution to polar:
 IMax=3 JMax=2 DiffMx= 0.00D+00
 G2DrvN: will do    17 centers at a time, making    1 passes.
 Calling FoFCou, ICntrl=  3107 FMM=F I1Cent=   0 AccDes= 1.00D-11.
 End of G2Drv F.D. properties file   721 does not exist.
 End of G2Drv F.D. properties file   722 does not exist.
 End of G2Drv F.D. properties file   788 does not exist.
          IDoAtm=1111111111111111
          Differentiating once with respect to nuclear coordinates.
 Keep R1 ints in memory in canonical form, NReq=22504021.
          There are    51 degrees of freedom in the 1st order CPHF.  IDoFFX=6 NUNeed=     0.
     45 vectors produced by pass  0 Test12= 4.10D-15 1.96D-09 XBig12= 7.35D-02 1.01D-01.
 AX will form    45 AO Fock derivatives at one time.
     45 vectors produced by pass  1 Test12= 4.10D-15 1.96D-09 XBig12= 7.29D-03 2.13D-02.
     45 vectors produced by pass  2 Test12= 4.10D-15 1.96D-09 XBig12= 8.29D-05 1.46D-03.
     45 vectors produced by pass  3 Test12= 4.10D-15 1.96D-09 XBig12= 4.24D-07 8.19D-05.
     45 vectors produced by pass  4 Test12= 4.10D-15 1.96D-09 XBig12= 1.38D-09 4.93D-06.
     45 vectors produced by pass  5 Test12= 4.10D-15 1.96D-09 XBig12= 3.49D-12 2.60D-07.
     15 vectors produced by pass  6 Test12= 4.10D-15 1.96D-09 XBig12= 1.08D-14 1.33D-08.
 InvSVY:  IOpt=1 It=  1 EMax= 4.16D-16
 Solved reduced A of dimension   285 with    51 vectors.
 End of Minotr F.D. properties file   721 does not exist.
 End of Minotr F.D. properties file   722 does not exist.
 End of Minotr F.D. properties file   788 does not exist.
   1 Symmetry operations used in ECPInt.
 ECPInt:  NShTT=    3081 NPrTT=   11790 LenC2=    3051 LenP2D=    9046.
 LDataN:  DoStor=T MaxTD1= 4 Len=   56
 Calling FoFJK, ICntrl=    100127 FMM=F ISym2X=0 I1Cent= 0 IOpClX= 0 NMat=1 NMatS=1 NMatT=0.
 -------------------------------------------------------------------
 Center     Atomic                   Forces (Hartrees/Bohr)
 Number     Number              X              Y              Z
 -------------------------------------------------------------------
      1        6          -0.004541436    0.005591412    0.005989623
      2        6           0.001600191    0.001230834    0.000813973
      3        6          -0.000223862   -0.002039190    0.000857082
      4        6          -0.006959058    0.001321192    0.006067635
      5        6           0.006995004    0.000894531   -0.007005105
      6        6           0.002624220   -0.006708657   -0.006824107
      7        1          -0.000101397    0.000263731    0.000219882
      8        1           0.000049062   -0.000028226   -0.000390785
      9        1           0.000038116   -0.000041746   -0.000382693
     10        1          -0.000282669   -0.000038042    0.000223963
     11        1          -0.000529802   -0.000109659   -0.000111732
     12        1           0.000389243    0.000235537    0.000399143
     13        1          -0.000180082    0.000505286   -0.000131975
     14        1           0.000001918   -0.000446089    0.000411790
     15        1           0.000750677    0.000018970   -0.000091500
     16        1           0.000369875   -0.000649884   -0.000045193
 -------------------------------------------------------------------
 Cartesian Forces:  Max     0.007005105 RMS     0.002831159
 IRC-IRC-IRC-IRC-IRC-IRC-IRC-IRC-IRC-IRC-IRC-IRC-IRC-IRC-IRC-IRC-IRC-IRC
 Pt  1 Step number   1 out of a maximum of  20
 Modified Bulirsch-Stoer Extrapolation Cycles:
    EPS =    0.000010000000000
 Maximum DWI energy   std dev =  0.000016032 at pt    44
 Maximum DWI gradient std dev =  0.073022576 at pt    40
 CORRECTOR INTEGRATION CONVERGENCE:
   Recorrection delta-x convergence threshold:    0.010000
   Delta-x Convergence NOT Met
 IRC-IRC-IRC-IRC-IRC-IRC-IRC-IRC-IRC-IRC-IRC-IRC-IRC-IRC-IRC-IRC-IRC-IRC
                          Input orientation:                          
 ---------------------------------------------------------------------
 Center     Atomic      Atomic             Coordinates (Angstroms)
 Number     Number       Type             X           Y           Z
 ---------------------------------------------------------------------
      1          6           0       -0.655073   -1.270441   -0.594159
      2          6           0        0.722467   -1.228437   -0.416665
      3          6           0        1.416351   -0.020062   -0.445213
      4          6           0        0.754407    1.184032   -0.652211
      5          6           0       -0.683310    1.222542    0.996039
      6          6           0       -1.379708    0.009733    1.024652
      7          1           0       -1.184258   -2.203921   -0.453397
      8          1           0        1.230874   -2.110321   -0.047352
      9          1           0        2.441540   -0.001831   -0.097002
     10          1           0        1.296191    2.115862   -0.555333
     11          1           0        0.080164    1.415109    1.734774
     12          1           0       -2.397509   -0.025494    0.659352
     13          1           0       -1.145909   -0.720139    1.785119
     14          1           0       -1.173654    2.105944    0.609057
     15          1           0       -0.095936    1.229717   -1.317818
     16          1           0       -1.136794   -0.582900   -1.274873
 ---------------------------------------------------------------------
                    Distance matrix (angstroms):
                    1          2          3          4          5
     1  C    0.000000
     2  C    1.389562   0.000000
     3  C    2.424135   1.393722   0.000000
     4  C    2.830979   2.424151   1.389554   0.000000
     5  C    2.957108   3.158993   2.833699   2.187520   0.000000
     6  C    2.187348   2.833654   3.159009   2.957245   1.398818
     7  H    1.082236   2.142082   3.395950   3.908475   3.753992
     8  H    2.135695   1.082862   2.135856   3.383141   3.982555
     9  H    3.383127   2.135874   1.082864   2.135638   3.529662
    10  H    3.908451   3.395987   2.142133   1.082230   2.668933
    11  H    3.629970   3.468368   2.932142   2.491124   1.079678
    12  H    2.481384   3.512710   3.970595   3.621840   2.146958
    13  H    2.490927   2.932072   3.468382   3.630104   2.147244
    14  H    3.621689   3.970576   3.512764   2.481559   1.081939
    15  H    2.662162   2.743060   2.147183   1.080834   2.387256
    16  H    1.080805   2.147112   2.742932   2.662029   2.936376
                    6          7          8          9         10
     6  C    0.000000
     7  H    2.668913   0.000000
     8  H    3.529726   2.450815   0.000000
     9  H    3.982483   4.257067   2.431852   0.000000
    10  H    3.754007   4.982323   4.257104   2.450820   0.000000
    11  H    2.147226   4.414095   4.114458   3.307449   2.685958
    12  H    1.081945   2.730519   4.243949   4.897859   4.438952
    13  H    1.079669   2.685895   3.307516   4.114382   4.414123
    14  H    2.146923   4.438903   4.897910   4.243921   2.730575
    15  H    2.936596   3.704259   3.811871   3.073416   1.817871
    16  H    2.387056   1.817907   3.073382   3.811758   3.704116
                   11         12         13         14         15
    11  H    0.000000
    12  H    3.061166   0.000000
    13  H    2.462738   1.821095   0.000000
    14  H    1.821141   2.458329   3.061150   0.000000
    15  H    3.063283   3.283595   3.812165   2.375310   0.000000
    16  H    3.811955   2.375148   3.063082   3.283356   2.090648
                   16
    16  H    0.000000
 Symmetry turned off by external request.
 Stoichiometry    C6H10
 Framework group  C1[X(C6H10)]
 Deg. of freedom    42
 Full point group                 C1      NOp   1
 Rotational constants (GHZ):      4.4117964      3.6035019      2.3370752
 Basis read from rwf:  (5D, 7F)
 Pseudo-potential data read from rwf file.
   114 basis functions,   224 primitive gaussians,   114 cartesian basis functions
    23 alpha electrons       23 beta electrons
       nuclear repulsion energy       226.2750137419 Hartrees.
 NAtoms=   16 NActive=   16 NUniq=   16 SFac= 1.00D+00 NAtFMM=   60 NAOKFM=F Big=F
 Integral buffers will be    131072 words long.
 Raffenetti 2 integral format.
 Two-electron integral symmetry is turned off.
 One-electron integrals computed using PRISM.
   1 Symmetry operations used in ECPInt.
 ECPInt:  NShTT=    3081 NPrTT=   11790 LenC2=    3051 LenP2D=    9046.
 LDataN:  DoStor=T MaxTD1= 2 Len=   12
 NBasis=   114 RedAO= T EigKep=  7.70D-05  NBF=   114
 NBsUse=   114 1.00D-06 EigRej= -1.00D+00 NBFU=   114
 Initial guess from the checkpoint file:  "dairc1.chk"
 B after Tr=     0.000042   -0.000023   -0.000039
         Rot=    1.000000    0.000003   -0.000003    0.000009 Ang=   0.00 deg.
 ExpMin= 9.52D-02 ExpMax= 1.36D+04 ExpMxC= 4.63D+02 IAcc=2 IRadAn=         4 AccDes= 0.00D+00
 Harris functional with IExCor= 1009 and IRadAn=       4 diagonalized for initial guess.
 HarFok:  IExCor= 1009 AccDes= 0.00D+00 IRadAn=         4 IDoV= 1 UseB2=F ITyADJ=14
 ICtDFT=  3500011 ScaDFX=  1.000000  1.000000  1.000000  1.000000
 FoFCou: FMM=F IPFlag=           0 FMFlag=      100000 FMFlg1=           0
         NFxFlg=           0 DoJE=T BraDBF=F KetDBF=T FulRan=T
         wScrn=  0.000000 ICntrl=     500 IOpCl=  0 I1Cent=   200000004 NGrid=           0
         NMat0=    1 NMatS0=      1 NMatT0=    0 NMatD0=    1 NMtDS0=    0 NMtDT0=    0
 Symmetry not used in FoFCou.
 Keep R1 ints in memory in canonical form, NReq=22497437.
 Requested convergence on RMS density matrix=1.00D-08 within  64 cycles.
 Requested convergence on MAX density matrix=1.00D-06.
 Requested convergence on             energy=1.00D-06.
 No special actions if energy rises.
 SCF Done:  E(RM062X) =  -234.434443788     A.U. after    9 cycles
            NFock=  9  Conv=0.55D-08     -V/T= 2.0050
 QCSCF skips out because SCF is already converged.
 DoSCS=F DFT=T ScalE2(SS,OS)=  1.000000  1.000000
 Range of M.O.s used for correlation:     1   114
 NBasis=   114 NAE=    23 NBE=    23 NFC=     0 NFV=     0
 NROrb=    114 NOA=    23 NOB=    23 NVA=    91 NVB=    91

 **** Warning!!: The largest alpha MO coefficient is  0.29871930D+02

 Symmetrizing basis deriv contribution to polar:
 IMax=3 JMax=2 DiffMx= 0.00D+00
   1 Symmetry operations used in ECPInt.
 ECPInt:  NShTT=    3081 NPrTT=   11790 LenC2=    3051 LenP2D=    9046.
 LDataN:  DoStor=T MaxTD1= 3 Len=   28
 Calling FoFJK, ICntrl=      2127 FMM=F ISym2X=0 I1Cent= 0 IOpClX= 0 NMat=1 NMatS=1 NMatT=0.
 -------------------------------------------------------------------
 Center     Atomic                   Forces (Hartrees/Bohr)
 Number     Number              X              Y              Z
 -------------------------------------------------------------------
      1        6          -0.004003854    0.005291187    0.006578517
      2        6           0.001366502    0.001389441    0.000707307
      3        6          -0.000498584   -0.001884764    0.000774373
      4        6          -0.006420028    0.001013600    0.006644845
      5        6           0.006575781   -0.000380564   -0.007321165
      6        6           0.003493787   -0.005723762   -0.007183573
      7        1          -0.000140091    0.000275859    0.000264138
      8        1           0.000065247   -0.000079363   -0.000346485
      9        1           0.000093434   -0.000032181   -0.000346551
     10        1          -0.000298895   -0.000010844    0.000270561
     11        1          -0.000201356    0.000029047    0.000168645
     12        1          -0.000047919    0.000158544    0.000253710
     13        1          -0.000124063    0.000167149    0.000166728
     14        1          -0.000154821   -0.000027684    0.000259184
     15        1           0.000217585    0.000023119   -0.000452222
     16        1           0.000077275   -0.000208783   -0.000438010
 -------------------------------------------------------------------
 Cartesian Forces:  Max     0.007321165 RMS     0.002803886
 IRC-IRC-IRC-IRC-IRC-IRC-IRC-IRC-IRC-IRC-IRC-IRC-IRC-IRC-IRC-IRC-IRC-IRC
 Error in corrector energy =           0.0000000712
 Magnitude of corrector gradient =     0.0194218963
 Magnitude of analytic gradient =      0.0194258905
 Magnitude of difference =             0.0000438676
 Angle between gradients (degrees)=    0.1289
 Pt  1 Step number   2 out of a maximum of  20
 Modified Bulirsch-Stoer Extrapolation Cycles:
    EPS =    0.000010000000000
 Maximum DWI energy   std dev =  0.000014062 at pt    39
 Maximum DWI gradient std dev =  0.163388063 at pt     4
 CORRECTOR INTEGRATION CONVERGENCE:
   Recorrection delta-x convergence threshold:    0.010000
   Delta-x Convergence Met
 Point Number:   1          Path Number:   1
   CHANGE IN THE REACTION COORDINATE =    0.43693
   NET REACTION COORDINATE UP TO THIS POINT =    0.43693
  # OF POINTS ALONG THE PATH =   1
  # OF STEPS =   2

 Calculating another point on the path.
 IRC-IRC-IRC-IRC-IRC-IRC-IRC-IRC-IRC-IRC-IRC-IRC-IRC-IRC-IRC-IRC-IRC-IRC
                          Input orientation:                          
 ---------------------------------------------------------------------
 Center     Atomic      Atomic             Coordinates (Angstroms)
 Number     Number       Type             X           Y           Z
 ---------------------------------------------------------------------
      1          6           0       -0.668520   -1.252678   -0.571933
      2          6           0        0.727105   -1.223755   -0.414345
      3          6           0        1.414684   -0.026397   -0.442637
      4          6           0        0.732806    1.187464   -0.629702
      5          6           0       -0.661262    1.221208    0.971351
      6          6           0       -1.367950   -0.009458    1.000438
      7          1           0       -1.189737   -2.193040   -0.442921
      8          1           0        1.233680   -2.113642   -0.061758
      9          1           0        2.445503   -0.003156   -0.111423
     10          1           0        1.284347    2.115436   -0.544563
     11          1           0        0.072003    1.416364    1.741605
     12          1           0       -2.399666   -0.019172    0.669741
     13          1           0       -1.150979   -0.713423    1.791873
     14          1           0       -1.179996    2.105013    0.619671
     15          1           0       -0.087278    1.230721   -1.335899
     16          1           0       -1.133772   -0.591351   -1.292475
 ---------------------------------------------------------------------
                    Distance matrix (angstroms):
                    1          2          3          4          5
     1  C    0.000000
     2  C    1.404791   0.000000
     3  C    2.420789   1.381026   0.000000
     4  C    2.814488   2.420825   1.404781   0.000000
     5  C    2.915800   3.134575   2.804538   2.123189   0.000000
     6  C    2.123005   2.804529   3.134614   2.916017   1.419434
     7  H    1.082863   2.148165   3.387824   3.893439   3.733167
     8  H    2.149395   1.082974   2.129418   3.386848   3.972322
     9  H    3.386815   2.129441   1.082973   2.149307   3.510479
    10  H    3.893408   3.387872   2.148214   1.082856   2.623554
    11  H    3.608964   3.470953   2.941983   2.472276   1.081229
    12  H    2.461739   3.521784   3.973249   3.599570   2.156747
    13  H    2.472073   2.941945   3.470975   3.609161   2.157748
    14  H    3.599391   3.973276   3.521898   2.462039   1.083454
    15  H    2.662472   2.745348   2.152708   1.083108   2.377593
    16  H    1.083048   2.152652   2.745182   2.662248   2.938289
                    6          7          8          9         10
     6  C    0.000000
     7  H    2.623561   0.000000
     8  H    3.510602   2.454493   0.000000
     9  H    3.972242   4.256813   2.434160   0.000000
    10  H    3.733214   4.969345   4.256849   2.454450   0.000000
    11  H    2.157722   4.403628   4.130685   3.329002   2.680493
    12  H    1.083463   2.725371   4.257123   4.907764   4.427532
    13  H    1.081209   2.680499   3.329138   4.130582   4.403656
    14  H    2.156687   4.427466   4.907873   4.257125   2.725534
    15  H    2.938816   3.706071   3.814856   3.071933   1.813915
    16  H    2.377159   1.813913   3.071947   3.814717   3.705856
                   11         12         13         14         15
    11  H    0.000000
    12  H    3.052672   0.000000
    13  H    2.456462   1.816696   0.000000
    14  H    1.816721   2.449952   3.052619   0.000000
    15  H    3.087210   3.306352   3.833291   2.404718   0.000000
    16  H    3.832812   2.404198   3.086810   3.305875   2.101662
                   16
    16  H    0.000000
 Symmetry turned off by external request.
 Stoichiometry    C6H10
 Framework group  C1[X(C6H10)]
 Deg. of freedom    42
 Full point group                 C1      NOp   1
 Rotational constants (GHZ):      4.4395207      3.6751799      2.3700371
 Basis read from rwf:  (5D, 7F)
 Pseudo-potential data read from rwf file.
   114 basis functions,   224 primitive gaussians,   114 cartesian basis functions
    23 alpha electrons       23 beta electrons
       nuclear repulsion energy       226.9403099006 Hartrees.
 NAtoms=   16 NActive=   16 NUniq=   16 SFac= 1.00D+00 NAtFMM=   60 NAOKFM=F Big=F
 Integral buffers will be    131072 words long.
 Raffenetti 2 integral format.
 Two-electron integral symmetry is turned off.
 One-electron integrals computed using PRISM.
   1 Symmetry operations used in ECPInt.
 ECPInt:  NShTT=    3081 NPrTT=   11790 LenC2=    3051 LenP2D=    9044.
 LDataN:  DoStor=T MaxTD1= 2 Len=   12
 NBasis=   114 RedAO= T EigKep=  7.10D-05  NBF=   114
 NBsUse=   114 1.00D-06 EigRej= -1.00D+00 NBFU=   114
 Initial guess from the checkpoint file:  "dairc1.chk"
 B after Tr=    -0.000426    0.000241   -0.000190
         Rot=    1.000000   -0.000064   -0.000120    0.000011 Ang=  -0.02 deg.
 ExpMin= 9.52D-02 ExpMax= 1.36D+04 ExpMxC= 4.63D+02 IAcc=2 IRadAn=         4 AccDes= 0.00D+00
 Harris functional with IExCor= 1009 and IRadAn=       4 diagonalized for initial guess.
 HarFok:  IExCor= 1009 AccDes= 0.00D+00 IRadAn=         4 IDoV= 1 UseB2=F ITyADJ=14
 ICtDFT=  3500011 ScaDFX=  1.000000  1.000000  1.000000  1.000000
 FoFCou: FMM=F IPFlag=           0 FMFlag=      100000 FMFlg1=           0
         NFxFlg=           0 DoJE=T BraDBF=F KetDBF=T FulRan=T
         wScrn=  0.000000 ICntrl=     500 IOpCl=  0 I1Cent=   200000004 NGrid=           0
         NMat0=    1 NMatS0=      1 NMatT0=    0 NMatD0=    1 NMtDS0=    0 NMtDT0=    0
 Symmetry not used in FoFCou.
 Keep R1 ints in memory in canonical form, NReq=22497467.
 Requested convergence on RMS density matrix=1.00D-08 within  64 cycles.
 Requested convergence on MAX density matrix=1.00D-06.
 Requested convergence on             energy=1.00D-06.
 No special actions if energy rises.
 SCF Done:  E(RM062X) =  -234.438488329     A.U. after   11 cycles
            NFock= 11  Conv=0.46D-08     -V/T= 2.0054
 QCSCF skips out because SCF is already converged.
 DoSCS=F DFT=T ScalE2(SS,OS)=  1.000000  1.000000
 Range of M.O.s used for correlation:     1   114
 NBasis=   114 NAE=    23 NBE=    23 NFC=     0 NFV=     0
 NROrb=    114 NOA=    23 NOB=    23 NVA=    91 NVB=    91

 **** Warning!!: The largest alpha MO coefficient is  0.33656291D+02

   1 Symmetry operations used in ECPInt.
 ECPInt:  NShTT=    3081 NPrTT=   11790 LenC2=    3051 LenP2D=    9044.
 LDataN:  DoStor=T MaxTD1= 3 Len=   28
 Symmetrizing basis deriv contribution to polar:
 IMax=3 JMax=2 DiffMx= 0.00D+00
 G2DrvN: will do    17 centers at a time, making    1 passes.
 Calling FoFCou, ICntrl=  3107 FMM=F I1Cent=   0 AccDes= 1.00D-11.
 End of G2Drv F.D. properties file   721 does not exist.
 End of G2Drv F.D. properties file   722 does not exist.
 End of G2Drv F.D. properties file   788 does not exist.
          IDoAtm=1111111111111111
          Differentiating once with respect to nuclear coordinates.
 Keep R1 ints in memory in canonical form, NReq=22504071.
          There are    51 degrees of freedom in the 1st order CPHF.  IDoFFX=6 NUNeed=     0.
     45 vectors produced by pass  0 Test12= 4.10D-15 1.96D-09 XBig12= 7.26D-02 1.00D-01.
 AX will form    45 AO Fock derivatives at one time.
     45 vectors produced by pass  1 Test12= 4.10D-15 1.96D-09 XBig12= 7.05D-03 2.34D-02.
     45 vectors produced by pass  2 Test12= 4.10D-15 1.96D-09 XBig12= 8.12D-05 1.40D-03.
     45 vectors produced by pass  3 Test12= 4.10D-15 1.96D-09 XBig12= 4.13D-07 7.18D-05.
     45 vectors produced by pass  4 Test12= 4.10D-15 1.96D-09 XBig12= 1.34D-09 5.09D-06.
     45 vectors produced by pass  5 Test12= 4.10D-15 1.96D-09 XBig12= 3.31D-12 2.73D-07.
     16 vectors produced by pass  6 Test12= 4.10D-15 1.96D-09 XBig12= 9.67D-15 1.50D-08.
 InvSVY:  IOpt=1 It=  1 EMax= 3.33D-16
 Solved reduced A of dimension   286 with    51 vectors.
 End of Minotr F.D. properties file   721 does not exist.
 End of Minotr F.D. properties file   722 does not exist.
 End of Minotr F.D. properties file   788 does not exist.
   1 Symmetry operations used in ECPInt.
 ECPInt:  NShTT=    3081 NPrTT=   11790 LenC2=    3051 LenP2D=    9044.
 LDataN:  DoStor=T MaxTD1= 4 Len=   56
 Calling FoFJK, ICntrl=    100127 FMM=F ISym2X=0 I1Cent= 0 IOpClX= 0 NMat=1 NMatS=1 NMatT=0.
 -------------------------------------------------------------------
 Center     Atomic                   Forces (Hartrees/Bohr)
 Number     Number              X              Y              Z
 -------------------------------------------------------------------
      1        6          -0.009831393    0.012228764    0.014266903
      2        6           0.003377905    0.002641180    0.001740863
      3        6          -0.000523196   -0.004235854    0.001899080
      4        6          -0.015230444    0.002849796    0.014465921
      5        6           0.015340038    0.000880893   -0.016235142
      6        6           0.006638369   -0.014240937   -0.015865414
      7        1          -0.000225635    0.000603606    0.000532611
      8        1           0.000128299   -0.000128504   -0.000952722
      9        1           0.000158288   -0.000083598   -0.000953560
     10        1          -0.000617668   -0.000092425    0.000547946
     11        1          -0.000842893   -0.000112305    0.000062408
     12        1           0.000429931    0.000464909    0.000793457
     13        1          -0.000329477    0.000783095    0.000050879
     14        1          -0.000163528   -0.000567327    0.000811567
     15        1           0.001167041    0.000045537   -0.000590015
     16        1           0.000524361   -0.001036831   -0.000574783
 -------------------------------------------------------------------
 Cartesian Forces:  Max     0.016235142 RMS     0.006374988
 IRC-IRC-IRC-IRC-IRC-IRC-IRC-IRC-IRC-IRC-IRC-IRC-IRC-IRC-IRC-IRC-IRC-IRC
 Pt  2 Step number   1 out of a maximum of  20
 Modified Bulirsch-Stoer Extrapolation Cycles:
    EPS =    0.000010000000000
 Maximum DWI energy   std dev =  0.000017815 at pt    70
 Maximum DWI gradient std dev =  0.032584319 at pt    14
 CORRECTOR INTEGRATION CONVERGENCE:
   Recorrection delta-x convergence threshold:    0.010000
   Delta-x Convergence Met
 Point Number:   2          Path Number:   1
   CHANGE IN THE REACTION COORDINATE =    0.43692
   NET REACTION COORDINATE UP TO THIS POINT =    0.87385
  # OF POINTS ALONG THE PATH =   2
  # OF STEPS =   1

 Calculating another point on the path.
 IRC-IRC-IRC-IRC-IRC-IRC-IRC-IRC-IRC-IRC-IRC-IRC-IRC-IRC-IRC-IRC-IRC-IRC
                          Input orientation:                          
 ---------------------------------------------------------------------
 Center     Atomic      Atomic             Coordinates (Angstroms)
 Number     Number       Type             X           Y           Z
 ---------------------------------------------------------------------
      1          6           0       -0.682672   -1.235174   -0.550145
      2          6           0        0.732125   -1.219640   -0.411806
      3          6           0        1.413737   -0.032769   -0.439863
      4          6           0        0.711013    1.191652   -0.607593
      5          6           0       -0.638878    1.221539    0.947065
      6          6           0       -1.357443   -0.029790    0.976650
      7          1           0       -1.193990   -2.183449   -0.433870
      8          1           0        1.236987   -2.117872   -0.078627
      9          1           0        2.450515   -0.004553   -0.128403
     10          1           0        1.274188    2.114576   -0.535285
     11          1           0        0.062382    1.416453    1.748182
     12          1           0       -2.400893   -0.011452    0.681806
     13          1           0       -1.155815   -0.704884    1.798313
     14          1           0       -1.186883    2.102652    0.631874
     15          1           0       -0.075183    1.232170   -1.353663
     16          1           0       -1.129330   -0.603163   -1.310003
 ---------------------------------------------------------------------
                    Distance matrix (angstroms):
                    1          2          3          4          5
     1  C    0.000000
     2  C    1.421630   0.000000
     3  C    2.419271   1.368958   0.000000
     4  C    2.799133   2.419320   1.421675   0.000000
     5  C    2.877324   3.112159   2.776704   2.059140   0.000000
     6  C    2.058973   2.776662   3.112227   2.877543   1.443272
     7  H    1.083601   2.153911   3.380192   3.879501   3.716056
     8  H    2.164850   1.082919   2.123532   3.392551   3.965171
     9  H    3.392514   2.123586   1.082918   2.164808   3.493462
    10  H    3.879478   3.380248   2.153989   1.083597   2.579670
    11  H    3.587275   3.473196   2.951940   2.453759   1.082379
    12  H    2.442843   3.531502   3.976179   3.576865   2.166870
    13  H    2.453635   2.951935   3.473293   3.587517   2.168629
    14  H    3.576658   3.976115   3.531553   2.442992   1.084442
    15  H    2.665047   2.747766   2.156846   1.084605   2.368800
    16  H    1.084586   2.156807   2.747669   2.664884   2.943542
                    6          7          8          9         10
     6  C    0.000000
     7  H    2.579638   0.000000
     8  H    3.493532   2.457671   0.000000
     9  H    3.965138   4.257148   2.437466   0.000000
    10  H    3.716145   4.957339   4.257175   2.457642   0.000000
    11  H    2.168590   4.393076   4.148299   3.353209   2.677699
    12  H    1.084461   2.723769   4.271936   4.918601   4.416732
    13  H    1.082375   2.677733   3.353348   4.148290   4.393170
    14  H    2.166856   4.416619   4.918616   4.271885   2.723834
    15  H    2.943993   3.710014   3.817105   3.067555   1.808089
    16  H    2.368454   1.808064   3.067587   3.817041   3.709878
                   11         12         13         14         15
    11  H    0.000000
    12  H    3.040360   0.000000
    13  H    2.446750   1.810429   0.000000
    14  H    1.810435   2.438390   3.040362   0.000000
    15  H    3.110358   3.331464   3.854205   2.436385   0.000000
    16  H    3.853767   2.436041   3.110093   3.331011   2.116974
                   16
    16  H    0.000000
 Symmetry turned off by external request.
 Stoichiometry    C6H10
 Framework group  C1[X(C6H10)]
 Deg. of freedom    42
 Full point group                 C1      NOp   1
 Rotational constants (GHZ):      4.4633588      3.7443511      2.4003148
 Basis read from rwf:  (5D, 7F)
 Pseudo-potential data read from rwf file.
   114 basis functions,   224 primitive gaussians,   114 cartesian basis functions
    23 alpha electrons       23 beta electrons
       nuclear repulsion energy       227.5490368460 Hartrees.
 NAtoms=   16 NActive=   16 NUniq=   16 SFac= 1.00D+00 NAtFMM=   60 NAOKFM=F Big=F
 Integral buffers will be    131072 words long.
 Raffenetti 2 integral format.
 Two-electron integral symmetry is turned off.
 One-electron integrals computed using PRISM.
   1 Symmetry operations used in ECPInt.
 ECPInt:  NShTT=    3081 NPrTT=   11790 LenC2=    3048 LenP2D=    9059.
 LDataN:  DoStor=T MaxTD1= 2 Len=   12
 NBasis=   114 RedAO= T EigKep=  6.59D-05  NBF=   114
 NBsUse=   114 1.00D-06 EigRej= -1.00D+00 NBFU=   114
 Initial guess from the checkpoint file:  "dairc1.chk"
 B after Tr=    -0.000253    0.000139   -0.000291
         Rot=    1.000000   -0.000077   -0.000137    0.000010 Ang=  -0.02 deg.
 ExpMin= 9.52D-02 ExpMax= 1.36D+04 ExpMxC= 4.63D+02 IAcc=2 IRadAn=         4 AccDes= 0.00D+00
 Harris functional with IExCor= 1009 and IRadAn=       4 diagonalized for initial guess.
 HarFok:  IExCor= 1009 AccDes= 0.00D+00 IRadAn=         4 IDoV= 1 UseB2=F ITyADJ=14
 ICtDFT=  3500011 ScaDFX=  1.000000  1.000000  1.000000  1.000000
 FoFCou: FMM=F IPFlag=           0 FMFlag=      100000 FMFlg1=           0
         NFxFlg=           0 DoJE=T BraDBF=F KetDBF=T FulRan=T
         wScrn=  0.000000 ICntrl=     500 IOpCl=  0 I1Cent=   200000004 NGrid=           0
         NMat0=    1 NMatS0=      1 NMatT0=    0 NMatD0=    1 NMtDS0=    0 NMtDT0=    0
 Symmetry not used in FoFCou.
 Keep R1 ints in memory in canonical form, NReq=22497771.
 Requested convergence on RMS density matrix=1.00D-08 within  64 cycles.
 Requested convergence on MAX density matrix=1.00D-06.
 Requested convergence on             energy=1.00D-06.
 No special actions if energy rises.
 SCF Done:  E(RM062X) =  -234.445883223     A.U. after   11 cycles
            NFock= 11  Conv=0.44D-08     -V/T= 2.0058
 QCSCF skips out because SCF is already converged.
 DoSCS=F DFT=T ScalE2(SS,OS)=  1.000000  1.000000
 Range of M.O.s used for correlation:     1   114
 NBasis=   114 NAE=    23 NBE=    23 NFC=     0 NFV=     0
 NROrb=    114 NOA=    23 NOB=    23 NVA=    91 NVB=    91

 **** Warning!!: The largest alpha MO coefficient is  0.35967117D+02

   1 Symmetry operations used in ECPInt.
 ECPInt:  NShTT=    3081 NPrTT=   11790 LenC2=    3048 LenP2D=    9059.
 LDataN:  DoStor=T MaxTD1= 3 Len=   28
 Symmetrizing basis deriv contribution to polar:
 IMax=3 JMax=2 DiffMx= 0.00D+00
 G2DrvN: will do    17 centers at a time, making    1 passes.
 Calling FoFCou, ICntrl=  3107 FMM=F I1Cent=   0 AccDes= 1.00D-11.
 End of G2Drv F.D. properties file   721 does not exist.
 End of G2Drv F.D. properties file   722 does not exist.
 End of G2Drv F.D. properties file   788 does not exist.
          IDoAtm=1111111111111111
          Differentiating once with respect to nuclear coordinates.
 Keep R1 ints in memory in canonical form, NReq=22504465.
          There are    51 degrees of freedom in the 1st order CPHF.  IDoFFX=6 NUNeed=     0.
     45 vectors produced by pass  0 Test12= 4.10D-15 1.96D-09 XBig12= 6.97D-02 9.51D-02.
 AX will form    45 AO Fock derivatives at one time.
     45 vectors produced by pass  1 Test12= 4.10D-15 1.96D-09 XBig12= 6.71D-03 2.56D-02.
     45 vectors produced by pass  2 Test12= 4.10D-15 1.96D-09 XBig12= 7.85D-05 1.38D-03.
     45 vectors produced by pass  3 Test12= 4.10D-15 1.96D-09 XBig12= 3.99D-07 7.47D-05.
     45 vectors produced by pass  4 Test12= 4.10D-15 1.96D-09 XBig12= 1.31D-09 4.20D-06.
     45 vectors produced by pass  5 Test12= 4.10D-15 1.96D-09 XBig12= 3.37D-12 2.82D-07.
     16 vectors produced by pass  6 Test12= 4.10D-15 1.96D-09 XBig12= 9.13D-15 1.35D-08.
 InvSVY:  IOpt=1 It=  1 EMax= 3.33D-16
 Solved reduced A of dimension   286 with    51 vectors.
 End of Minotr F.D. properties file   721 does not exist.
 End of Minotr F.D. properties file   722 does not exist.
 End of Minotr F.D. properties file   788 does not exist.
   1 Symmetry operations used in ECPInt.
 ECPInt:  NShTT=    3081 NPrTT=   11790 LenC2=    3048 LenP2D=    9059.
 LDataN:  DoStor=T MaxTD1= 4 Len=   56
 Calling FoFJK, ICntrl=    100127 FMM=F ISym2X=0 I1Cent= 0 IOpClX= 0 NMat=1 NMatS=1 NMatT=0.
 -------------------------------------------------------------------
 Center     Atomic                   Forces (Hartrees/Bohr)
 Number     Number              X              Y              Z
 -------------------------------------------------------------------
      1        6          -0.015397606    0.019210884    0.023127000
      2        6           0.004790779    0.003624943    0.002886846
      3        6          -0.000647413   -0.005879332    0.003102272
      4        6          -0.023863746    0.004438166    0.023487136
      5        6           0.024046703    0.000911080   -0.026026132
      6        6           0.010809839   -0.022139211   -0.025490858
      7        1          -0.000336466    0.000901674    0.000849123
      8        1           0.000239815   -0.000314093   -0.001665657
      9        1           0.000360866   -0.000112493   -0.001674014
     10        1          -0.000925104   -0.000135718    0.000869078
     11        1          -0.001082657   -0.000176928    0.000161886
     12        1           0.000458735    0.000694726    0.001126889
     13        1          -0.000390979    0.001033447    0.000138174
     14        1          -0.000342729   -0.000692615    0.001153374
     15        1           0.001600131    0.000125277   -0.001036516
     16        1           0.000679833   -0.001489808   -0.001008602
 -------------------------------------------------------------------
 Cartesian Forces:  Max     0.026026132 RMS     0.010110778
 IRC-IRC-IRC-IRC-IRC-IRC-IRC-IRC-IRC-IRC-IRC-IRC-IRC-IRC-IRC-IRC-IRC-IRC
 Pt  3 Step number   1 out of a maximum of  20
 Modified Bulirsch-Stoer Extrapolation Cycles:
    EPS =    0.000010000000000
 Maximum DWI energy   std dev =  0.000014816 at pt    25
 Maximum DWI gradient std dev =  0.017260817 at pt    12
 CORRECTOR INTEGRATION CONVERGENCE:
   Recorrection delta-x convergence threshold:    0.010000
   Delta-x Convergence Met
 Point Number:   3          Path Number:   1
   CHANGE IN THE REACTION COORDINATE =    0.43699
   NET REACTION COORDINATE UP TO THIS POINT =    1.31084
  # OF POINTS ALONG THE PATH =   3
  # OF STEPS =   1

 Calculating another point on the path.
 IRC-IRC-IRC-IRC-IRC-IRC-IRC-IRC-IRC-IRC-IRC-IRC-IRC-IRC-IRC-IRC-IRC-IRC
                          Input orientation:                          
 ---------------------------------------------------------------------
 Center     Atomic      Atomic             Coordinates (Angstroms)
 Number     Number       Type             X           Y           Z
 ---------------------------------------------------------------------
      1          6           0       -0.696795   -1.217650   -0.528141
      2          6           0        0.736477   -1.216175   -0.409090
      3          6           0        1.413000   -0.038187   -0.436943
      4          6           0        0.689220    1.195802   -0.585262
      5          6           0       -0.616625    1.221886    0.922620
      6          6           0       -1.347005   -0.050049    0.952669
      7          1           0       -1.197884   -2.173821   -0.424176
      8          1           0        1.240117   -2.122744   -0.097488
      9          1           0        2.455944   -0.005508   -0.147408
     10          1           0        1.264164    2.113412   -0.525391
     11          1           0        0.053461    1.414997    1.752292
     12          1           0       -2.400147   -0.003993    0.692682
     13          1           0       -1.158969   -0.696249    1.802217
     14          1           0       -1.192654    2.098677    0.642996
     15          1           0       -0.062171    1.233873   -1.368821
     16          1           0       -1.124528   -0.615880   -1.324971
 ---------------------------------------------------------------------
                    Distance matrix (angstroms):
                    1          2          3          4          5
     1  C    0.000000
     2  C    1.438209   0.000000
     3  C    2.418820   1.358719   0.000000
     4  C    2.783712   2.418864   1.438257   0.000000
     5  C    2.839450   3.090062   2.748740   1.994899   0.000000
     6  C    1.994709   2.748660   3.090111   2.839646   1.467030
     7  H    1.084509   2.158487   3.373101   3.865419   3.698993
     8  H    2.180891   1.082874   2.119080   3.399141   3.959124
     9  H    3.399119   2.119141   1.082881   2.180866   3.477375
    10  H    3.865404   3.373149   2.158554   1.084506   2.535532
    11  H    3.562877   3.472917   2.958520   2.432365   1.083819
    12  H    2.421731   3.538601   3.977098   3.552019   2.176373
    13  H    2.432290   2.958533   3.473026   3.563105   2.178778
    14  H    3.551826   3.977019   3.538628   2.421828   1.085708
    15  H    2.668231   2.749847   2.159320   1.086279   2.357598
    16  H    1.086287   2.159290   2.749795   2.668154   2.947375
                    6          7          8          9         10
     6  C    0.000000
     7  H    2.535418   0.000000
     8  H    3.477368   2.460322   0.000000
     9  H    3.959112   4.257774   2.442010   0.000000
    10  H    3.699112   4.944926   4.257781   2.460292   0.000000
    11  H    2.178775   4.379782   4.164787   3.376184   2.672345
    12  H    1.085736   2.720471   4.285440   4.928222   4.403894
    13  H    1.083819   2.672369   3.376297   4.164824   4.379901
    14  H    2.176407   4.403762   4.928193   4.285394   2.720533
    15  H    2.947638   3.714105   3.818261   3.060852   1.801146
    16  H    2.357394   1.801108   3.060866   3.818244   3.714056
                   11         12         13         14         15
    11  H    0.000000
    12  H    3.025970   0.000000
    13  H    2.435127   1.803000   0.000000
    14  H    1.802987   2.425227   3.025978   0.000000
    15  H    3.128502   3.353839   3.870894   2.464404   0.000000
    16  H    3.870617   2.464251   3.128410   3.353559   2.133568
                   16
    16  H    0.000000
 Symmetry turned off by external request.
 Stoichiometry    C6H10
 Framework group  C1[X(C6H10)]
 Deg. of freedom    42
 Full point group                 C1      NOp   1
 Rotational constants (GHZ):      4.4878716      3.8158043      2.4303228
 Basis read from rwf:  (5D, 7F)
 Pseudo-potential data read from rwf file.
   114 basis functions,   224 primitive gaussians,   114 cartesian basis functions
    23 alpha electrons       23 beta electrons
       nuclear repulsion energy       228.2208639876 Hartrees.
 NAtoms=   16 NActive=   16 NUniq=   16 SFac= 1.00D+00 NAtFMM=   60 NAOKFM=F Big=F
 Integral buffers will be    131072 words long.
 Raffenetti 2 integral format.
 Two-electron integral symmetry is turned off.
 One-electron integrals computed using PRISM.
   1 Symmetry operations used in ECPInt.
 ECPInt:  NShTT=    3081 NPrTT=   11790 LenC2=    3048 LenP2D=    9067.
 LDataN:  DoStor=T MaxTD1= 2 Len=   12
 NBasis=   114 RedAO= T EigKep=  6.23D-05  NBF=   114
 NBsUse=   114 1.00D-06 EigRej= -1.00D+00 NBFU=   114
 Initial guess from the checkpoint file:  "dairc1.chk"
 B after Tr=    -0.000102    0.000050   -0.000393
         Rot=    1.000000   -0.000092   -0.000161    0.000006 Ang=  -0.02 deg.
 ExpMin= 9.52D-02 ExpMax= 1.36D+04 ExpMxC= 4.63D+02 IAcc=2 IRadAn=         4 AccDes= 0.00D+00
 Harris functional with IExCor= 1009 and IRadAn=       4 diagonalized for initial guess.
 HarFok:  IExCor= 1009 AccDes= 0.00D+00 IRadAn=         4 IDoV= 1 UseB2=F ITyADJ=14
 ICtDFT=  3500011 ScaDFX=  1.000000  1.000000  1.000000  1.000000
 FoFCou: FMM=F IPFlag=           0 FMFlag=      100000 FMFlg1=           0
         NFxFlg=           0 DoJE=T BraDBF=F KetDBF=T FulRan=T
         wScrn=  0.000000 ICntrl=     500 IOpCl=  0 I1Cent=   200000004 NGrid=           0
         NMat0=    1 NMatS0=      1 NMatT0=    0 NMatD0=    1 NMtDS0=    0 NMtDT0=    0
 Symmetry not used in FoFCou.
 Keep R1 ints in memory in canonical form, NReq=22497939.
 Requested convergence on RMS density matrix=1.00D-08 within  64 cycles.
 Requested convergence on MAX density matrix=1.00D-06.
 Requested convergence on             energy=1.00D-06.
 No special actions if energy rises.
 SCF Done:  E(RM062X) =  -234.456324817     A.U. after   11 cycles
            NFock= 11  Conv=0.34D-08     -V/T= 2.0061
 QCSCF skips out because SCF is already converged.
 DoSCS=F DFT=T ScalE2(SS,OS)=  1.000000  1.000000
 Range of M.O.s used for correlation:     1   114
 NBasis=   114 NAE=    23 NBE=    23 NFC=     0 NFV=     0
 NROrb=    114 NOA=    23 NOB=    23 NVA=    91 NVB=    91

 **** Warning!!: The largest alpha MO coefficient is  0.37044565D+02

   1 Symmetry operations used in ECPInt.
 ECPInt:  NShTT=    3081 NPrTT=   11790 LenC2=    3048 LenP2D=    9067.
 LDataN:  DoStor=T MaxTD1= 3 Len=   28
 Symmetrizing basis deriv contribution to polar:
 IMax=3 JMax=2 DiffMx= 0.00D+00
 G2DrvN: will do    17 centers at a time, making    1 passes.
 Calling FoFCou, ICntrl=  3107 FMM=F I1Cent=   0 AccDes= 1.00D-11.
 End of G2Drv F.D. properties file   721 does not exist.
 End of G2Drv F.D. properties file   722 does not exist.
 End of G2Drv F.D. properties file   788 does not exist.
          IDoAtm=1111111111111111
          Differentiating once with respect to nuclear coordinates.
 Keep R1 ints in memory in canonical form, NReq=22504693.
          There are    51 degrees of freedom in the 1st order CPHF.  IDoFFX=6 NUNeed=     0.
     45 vectors produced by pass  0 Test12= 4.10D-15 1.96D-09 XBig12= 6.55D-02 8.59D-02.
 AX will form    45 AO Fock derivatives at one time.
     45 vectors produced by pass  1 Test12= 4.10D-15 1.96D-09 XBig12= 6.30D-03 2.75D-02.
     45 vectors produced by pass  2 Test12= 4.10D-15 1.96D-09 XBig12= 7.47D-05 1.39D-03.
     45 vectors produced by pass  3 Test12= 4.10D-15 1.96D-09 XBig12= 3.79D-07 7.71D-05.
     45 vectors produced by pass  4 Test12= 4.10D-15 1.96D-09 XBig12= 1.27D-09 4.83D-06.
     45 vectors produced by pass  5 Test12= 4.10D-15 1.96D-09 XBig12= 3.52D-12 2.87D-07.
     15 vectors produced by pass  6 Test12= 4.10D-15 1.96D-09 XBig12= 9.23D-15 1.38D-08.
 InvSVY:  IOpt=1 It=  1 EMax= 6.38D-16
 Solved reduced A of dimension   285 with    51 vectors.
 End of Minotr F.D. properties file   721 does not exist.
 End of Minotr F.D. properties file   722 does not exist.
 End of Minotr F.D. properties file   788 does not exist.
   1 Symmetry operations used in ECPInt.
 ECPInt:  NShTT=    3081 NPrTT=   11790 LenC2=    3048 LenP2D=    9067.
 LDataN:  DoStor=T MaxTD1= 4 Len=   56
 Calling FoFJK, ICntrl=    100127 FMM=F ISym2X=0 I1Cent= 0 IOpClX= 0 NMat=1 NMatS=1 NMatT=0.
 -------------------------------------------------------------------
 Center     Atomic                   Forces (Hartrees/Bohr)
 Number     Number              X              Y              Z
 -------------------------------------------------------------------
      1        6          -0.019455688    0.024670644    0.030472758
      2        6           0.004911855    0.003871830    0.004007907
      3        6          -0.000795495   -0.006045506    0.004239549
      4        6          -0.030460739    0.005445503    0.030947495
      5        6           0.030644211    0.000396303   -0.034105941
      6        6           0.014428935   -0.027877187   -0.033457806
      7        1          -0.000441991    0.001200969    0.001251790
      8        1           0.000269079   -0.000494733   -0.002367399
      9        1           0.000516184   -0.000069759   -0.002382375
     10        1          -0.001229218   -0.000180692    0.001278055
     11        1          -0.001101258   -0.000374765   -0.000032241
     12        1           0.000666286    0.000786002    0.001164252
     13        1          -0.000230274    0.001140918   -0.000065486
     14        1          -0.000323150   -0.000917423    0.001204128
     15        1           0.001860888    0.000204589   -0.001100777
     16        1           0.000740377   -0.001756694   -0.001053910
 -------------------------------------------------------------------
 Cartesian Forces:  Max     0.034105941 RMS     0.013057390
 IRC-IRC-IRC-IRC-IRC-IRC-IRC-IRC-IRC-IRC-IRC-IRC-IRC-IRC-IRC-IRC-IRC-IRC
 Pt  4 Step number   1 out of a maximum of  20
 Modified Bulirsch-Stoer Extrapolation Cycles:
    EPS =    0.000010000000000
 Maximum DWI energy   std dev =  0.000027230 at pt    27
 Maximum DWI gradient std dev =  0.011887271 at pt    24
 CORRECTOR INTEGRATION CONVERGENCE:
   Recorrection delta-x convergence threshold:    0.010000
   Delta-x Convergence Met
 Point Number:   4          Path Number:   1
   CHANGE IN THE REACTION COORDINATE =    0.43698
   NET REACTION COORDINATE UP TO THIS POINT =    1.74782
  # OF POINTS ALONG THE PATH =   4
  # OF STEPS =   1

 Calculating another point on the path.
 IRC-IRC-IRC-IRC-IRC-IRC-IRC-IRC-IRC-IRC-IRC-IRC-IRC-IRC-IRC-IRC-IRC-IRC
                          Input orientation:                          
 ---------------------------------------------------------------------
 Center     Atomic      Atomic             Coordinates (Angstroms)
 Number     Number       Type             X           Y           Z
 ---------------------------------------------------------------------
      1          6           0       -0.710559   -1.200087   -0.505719
      2          6           0        0.739668   -1.213335   -0.406129
      3          6           0        1.412207   -0.042261   -0.433814
      4          6           0        0.667586    1.199634   -0.562506
      5          6           0       -0.594656    1.221596    0.897737
      6          6           0       -1.336167   -0.069764    0.928236
      7          1           0       -1.201984   -2.163466   -0.412563
      8          1           0        1.242551   -2.128130   -0.118346
      9          1           0        2.461411   -0.005649   -0.168420
     10          1           0        1.253430    2.112132   -0.513545
     11          1           0        0.046509    1.411579    1.752619
     12          1           0       -2.396751    0.002303    0.700780
     13          1           0       -1.159486   -0.688499    1.802288
     14          1           0       -1.196241    2.092876    0.651417
     15          1           0       -0.049611    1.235865   -1.379863
     16          1           0       -1.120182   -0.628105   -1.335685
 ---------------------------------------------------------------------
                    Distance matrix (angstroms):
                    1          2          3          4          5
     1  C    0.000000
     2  C    1.453702   0.000000
     3  C    2.419063   1.350737   0.000000
     4  C    2.767882   2.419105   1.453727   0.000000
     5  C    2.801369   3.067470   2.719901   1.930298   0.000000
     6  C    1.930089   2.719812   3.067490   2.801555   1.489422
     7  H    1.085484   2.161666   3.366594   3.850742   3.680268
     8  H    2.196807   1.082849   2.116401   3.406153   3.953279
     9  H    3.406148   2.116462   1.082869   2.196775   3.461556
    10  H    3.850729   3.366634   2.161707   1.085479   2.490019
    11  H    3.534691   3.468549   2.959605   2.406337   1.085362
    12  H    2.396795   3.541206   3.974600   3.524153   2.184722
    13  H    2.406274   2.959619   3.468628   3.534896   2.187626
    14  H    3.523983   3.974566   3.541261   2.396944   1.087063
    15  H    2.671113   2.751309   2.159983   1.088006   2.341952
    16  H    1.088025   2.160001   2.751286   2.671057   2.947158
                    6          7          8          9         10
     6  C    0.000000
     7  H    2.489847   0.000000
     8  H    3.461502   2.462431   0.000000
     9  H    3.953273   4.258667   2.448071   0.000000
    10  H    3.680410   4.931531   4.258653   2.462382   0.000000
    11  H    2.187642   4.362074   4.178584   3.395684   2.661377
    12  H    1.087091   2.712481   4.295839   4.935312   4.387458
    13  H    1.085364   2.661371   3.395756   4.178621   4.362199
    14  H    2.184770   4.387315   4.935295   4.295854   2.712636
    15  H    2.947409   3.717403   3.818059   3.051915   1.793396
    16  H    2.341737   1.793371   3.051966   3.818084   3.717371
                   11         12         13         14         15
    11  H    0.000000
    12  H    3.010306   0.000000
    13  H    2.422235   1.794812   0.000000
    14  H    1.794781   2.411256   3.010299   0.000000
    15  H    3.138878   3.370433   3.880862   2.485020   0.000000
    16  H    3.880605   2.484800   3.138799   3.370177   2.149990
[...]
   1 Symmetry operations used in ECPInt.
 ECPInt:  NShTT=    3081 NPrTT=   11790 LenC2=    3005 LenP2D=    8691.
 LDataN:  DoStor=T MaxTD1= 2 Len=   12
 NBasis=   114 RedAO= T EigKep=  2.57D-04  NBF=   114
 NBsUse=   114 1.00D-06 EigRej= -1.00D+00 NBFU=   114
 Initial guess from the checkpoint file:  "dairc1.chk"
 B after Tr=     0.000012   -0.000009   -0.000021
         Rot=    1.000000   -0.000052    0.000065    0.000015 Ang=  -0.01 deg.
 ExpMin= 9.52D-02 ExpMax= 1.36D+04 ExpMxC= 4.63D+02 IAcc=2 IRadAn=         4 AccDes= 0.00D+00
 Harris functional with IExCor= 1009 and IRadAn=       4 diagonalized for initial guess.
 HarFok:  IExCor= 1009 AccDes= 0.00D+00 IRadAn=         4 IDoV= 1 UseB2=F ITyADJ=14
 ICtDFT=  3500011 ScaDFX=  1.000000  1.000000  1.000000  1.000000
 FoFCou: FMM=F IPFlag=           0 FMFlag=      100000 FMFlg1=           0
         NFxFlg=           0 DoJE=T BraDBF=F KetDBF=T FulRan=T
         wScrn=  0.000000 ICntrl=     500 IOpCl=  0 I1Cent=   200000004 NGrid=           0
         NMat0=    1 NMatS0=      1 NMatT0=    0 NMatD0=    1 NMtDS0=    0 NMtDT0=    0
 Symmetry not used in FoFCou.
 Keep R1 ints in memory in canonical form, NReq=22490597.
 Requested convergence on RMS density matrix=1.00D-08 within  64 cycles.
 Requested convergence on MAX density matrix=1.00D-06.
 Requested convergence on             energy=1.00D-06.
 No special actions if energy rises.
 SCF Done:  E(RM062X) =  -234.464499660     A.U. after    8 cycles
            NFock=  8  Conv=0.48D-08     -V/T= 2.0045
 QCSCF skips out because SCF is already converged.
 DoSCS=F DFT=T ScalE2(SS,OS)=  1.000000  1.000000
 Range of M.O.s used for correlation:     1   114
 NBasis=   114 NAE=    23 NBE=    23 NFC=     0 NFV=     0
 NROrb=    114 NOA=    23 NOB=    23 NVA=    91 NVB=    91

 **** Warning!!: The largest alpha MO coefficient is  0.16202760D+02

 Symmetrizing basis deriv contribution to polar:
 IMax=3 JMax=2 DiffMx= 0.00D+00
   1 Symmetry operations used in ECPInt.
 ECPInt:  NShTT=    3081 NPrTT=   11790 LenC2=    3005 LenP2D=    8691.
 LDataN:  DoStor=T MaxTD1= 3 Len=   28
 Calling FoFJK, ICntrl=      2127 FMM=F ISym2X=0 I1Cent= 0 IOpClX= 0 NMat=1 NMatS=1 NMatT=0.
 -------------------------------------------------------------------
 Center     Atomic                   Forces (Hartrees/Bohr)
 Number     Number              X              Y              Z
 -------------------------------------------------------------------
      1        6           0.000099673   -0.000057046   -0.000040056
      2        6           0.000071388   -0.000005462    0.000007794
      3        6           0.000081117   -0.000036745   -0.000136751
      4        6           0.000071167   -0.000033501   -0.000087553
      5        6          -0.000088841    0.000023136    0.000197968
      6        6          -0.000222042    0.000105428    0.000049893
      7        1           0.000005972   -0.000001046    0.000004813
      8        1           0.000002304    0.000007189    0.000012112
      9        1           0.000006555   -0.000005453   -0.000024670
     10        1           0.000004489   -0.000004209   -0.000017903
     11        1          -0.000003956   -0.000013186   -0.000005116
     12        1          -0.000022242    0.000024143    0.000026138
     13        1          -0.000023095    0.000000682   -0.000028598
     14        1          -0.000003009    0.000010172    0.000049904
     15        1           0.000006493   -0.000001533    0.000007220
     16        1           0.000014028   -0.000012571   -0.000015194
 -------------------------------------------------------------------
 Cartesian Forces:  Max     0.000222042 RMS     0.000061051
 IRC-IRC-IRC-IRC-IRC-IRC-IRC-IRC-IRC-IRC-IRC-IRC-IRC-IRC-IRC-IRC-IRC-IRC
 Error in corrector energy =           0.0000000262
 Magnitude of corrector gradient =     0.0004245252
 Magnitude of analytic gradient =      0.0004229735
 Magnitude of difference =             0.0000077142
 Angle between gradients (degrees)=    1.0217
 Pt 37 Step number   2 out of a maximum of  20
 Modified Bulirsch-Stoer Extrapolation Cycles:
    EPS =    0.000010000000000
 Maximum DWI energy   std dev =  0.000001305 at pt   350
 Maximum DWI gradient std dev =  1.149087878 at pt   275
 CORRECTOR INTEGRATION CONVERGENCE:
   Recorrection delta-x convergence threshold:    0.010000
   Delta-x Convergence Met
 Point Number:  25          Path Number:   2
   CHANGE IN THE REACTION COORDINATE =    0.43262
   NET REACTION COORDINATE UP TO THIS POINT =   10.89988
  # OF POINTS ALONG THE PATH =  37
  # OF STEPS =   2

 PES minimum detected on this side of the pathway.
    Magnitude of the gradient =      0.0001486
 Calculation of REVERSE path complete.
 Reaction path calculation complete.
 
 Energies reported relative to the TS energy of        -234.433258
 --------------------------------------------------------------------------
    Summary of reaction path following
 --------------------------------------------------------------------------
                        Energy    RxCoord
   1                   -0.03124 -10.89988
   2                   -0.03117 -10.46726
   3                   -0.03107 -10.03493
   4                   -0.03094  -9.59966
   5                   -0.03082  -9.16396
   6                   -0.03072  -8.73343
   7                   -0.03062  -8.29889
   8                   -0.03050  -7.86279
   9                   -0.03034  -7.42629
  10                   -0.03011  -6.98995
  11                   -0.02979  -6.55357
  12                   -0.02936  -6.11688
  13                   -0.02878  -5.67999
  14                   -0.02802  -5.24307
  15                   -0.02704  -4.80615
  16                   -0.02579  -4.36922
  17                   -0.02421  -3.93227
  18                   -0.02228  -3.49528
  19                   -0.01994  -3.05828
  20                   -0.01717  -2.62129
  21                   -0.01397  -2.18431
  22                   -0.01045  -1.74740
  23                   -0.00681  -1.31056
  24                   -0.00343  -0.87372
  25                   -0.00096  -0.43690
  26                    0.00000   0.00000
  27                   -0.00119   0.43693
  28                   -0.00524   0.87385
  29                   -0.01263   1.31084
  30                   -0.02307   1.74782
  31                   -0.03561   2.18478
  32                   -0.04917   2.62171
  33                   -0.06277   3.05864
  34                   -0.07546   3.49555
  35                   -0.08626   3.93240
  36                   -0.09410   4.36891
  37                   -0.09807   4.80105
  38                   -0.09898   5.18750
 --------------------------------------------------------------------------
 
 Total number of points:                   37
 Total number of gradient calculations:    52
 Total number of Hessian calculations:     38
 IRC-IRC-IRC-IRC-IRC-IRC-IRC-IRC-IRC-IRC-IRC-IRC-IRC-IRC-IRC-IRC-IRC-IRC
                          Input orientation:                          
 ---------------------------------------------------------------------
 Center     Atomic      Atomic             Coordinates (Angstroms)
 Number     Number       Type             X           Y           Z
 ---------------------------------------------------------------------
      1          6           0       -0.375237   -1.557402   -0.965529
      2          6           0        0.861836   -1.341984   -0.519276
      3          6           0        1.642732   -0.114294   -0.746780
      4          6           0        1.123839    1.094348   -0.963936
      5          6           0       -1.206662    1.482438    1.572945
      6          6           0       -1.873035    0.335932    1.529199
      7          1           0       -0.904136   -2.474677   -0.746844
      8          1           0        1.361023   -2.120079    0.048315
      9          1           0        2.720851   -0.229379   -0.717128
     10          1           0        1.753552    1.954725   -1.143171
     11          1           0       -0.159436    1.521005    1.841476
     12          1           0       -2.919444    0.292083    1.255389
     13          1           0       -1.396563   -0.606574    1.760940
     14          1           0       -1.678055    2.427955    1.336664
     15          1           0        0.055088    1.264234   -0.953564
     16          1           0       -0.897275   -0.827751   -1.571286
 ---------------------------------------------------------------------
                    Distance matrix (angstroms):
                    1          2          3          4          5
     1  C    0.000000
     2  C    1.332628   0.000000
     3  C    2.490504   1.472678   0.000000
     4  C    3.046147   2.490397   1.333124   0.000000
     5  C    4.046696   4.078410   4.006210   3.466643   0.000000
     6  C    3.471567   3.806727   4.212292   3.971419   1.326817
     7  H    1.081181   2.110317   3.472456   4.110688   4.596923
     8  H    2.087842   1.084794   2.175939   3.378379   4.679277
     9  H    3.378033   2.175539   1.084650   2.088927   4.857994
    10  H    4.110758   3.471698   2.109560   1.081162   4.045145
    11  H    4.171622   3.848746   3.552616   3.114349   1.081794
    12  H    3.850462   4.485275   4.998727   4.681578   2.109837
    13  H    3.062811   3.292503   3.970934   4.082954   2.106034
    14  H    4.783356   4.909990   4.672408   3.862885   1.082609
    15  H    2.854287   2.762575   2.112750   1.082219   2.832468
    16  H    1.082523   2.113204   2.764139   2.854512   3.913934
                    6          7          8          9         10
     6  C    0.000000
     7  H    3.744150   0.000000
     8  H    4.322515   2.426719   0.000000
     9  H    5.144837   4.264127   2.451485   0.000000
    10  H    4.786876   5.180732   4.263536   2.426415   0.000000
    11  H    2.106736   4.818656   4.334133   4.231589   3.571519
    12  H    1.082528   3.965522   5.059442   5.997973   5.509479
    13  H    1.081225   3.165639   3.581628   4.820394   4.991727
    14  H    2.109893   5.382914   5.619649   5.534425   4.260217
    15  H    3.277730   3.865528   3.763350   3.064812   1.843232
    16  H    3.452429   1.841770   3.064821   3.765431   3.866825
                   11         12         13         14         15
    11  H    0.000000
    12  H    3.077563   0.000000
    13  H    2.462430   1.839113   0.000000
    14  H    1.839456   2.471761   3.076950   0.000000
    15  H    2.814995   3.830456   3.602187   3.098899   0.000000
    16  H    4.208087   3.651477   3.376675   4.434570   2.380121
                   16
    16  H    0.000000
 Symmetry turned off by external request.
 Stoichiometry    C6H10
 Framework group  C1[X(C6H10)]
 Deg. of freedom    42
 Full point group                 C1      NOp   1
 Rotational constants (GHZ):      4.1149122      1.9020814      1.4414699

 **********************************************************************

            Population analysis using the SCF density.

 **********************************************************************

 Alpha  occ. eigenvalues --  -10.54991 -10.54941 -10.53866 -10.53705 -10.53677
 Alpha  occ. eigenvalues --  -10.53559  -0.91120  -0.86092  -0.82942  -0.70472
 Alpha  occ. eigenvalues --   -0.65964  -0.60922  -0.57057  -0.54227  -0.51072
 Alpha  occ. eigenvalues --   -0.49473  -0.48735  -0.43269  -0.41429  -0.40944
 Alpha  occ. eigenvalues --   -0.38127  -0.32911  -0.29172
 Alpha virt. eigenvalues --    0.00210   0.04327   0.08765   0.10074   0.10685
 Alpha virt. eigenvalues --    0.11424   0.12070   0.13361   0.14131   0.15987
 Alpha virt. eigenvalues --    0.16437   0.18265   0.19904   0.21126   0.23025
 Alpha virt. eigenvalues --    0.23511   0.24872   0.25852   0.26790   0.27924
 Alpha virt. eigenvalues --    0.28228   0.28878   0.31291   0.32655   0.35217
 Alpha virt. eigenvalues --    0.36899   0.37410   0.38491   0.39570   0.39877
 Alpha virt. eigenvalues --    0.42562   0.44818   0.46155   0.46592   0.47802
 Alpha virt. eigenvalues --    0.48106   0.49338   0.51450   0.51799   0.52001
 Alpha virt. eigenvalues --    0.53222   0.55169   0.57430   0.58004   0.60813
 Alpha virt. eigenvalues --    0.62103   0.64297   0.69983   0.70722   0.72580
 Alpha virt. eigenvalues --    0.73861   1.38014   1.41881   1.46400   1.50947
 Alpha virt. eigenvalues --    1.52969   1.53546   1.53825   1.54794   1.55830
 Alpha virt. eigenvalues --    1.57032   1.57978   1.58350   1.58518   1.60859
 Alpha virt. eigenvalues --    1.63189   1.63587   1.64272   1.66367   1.67359
 Alpha virt. eigenvalues --    1.68860   1.80839   1.82665   1.94396   1.95419
 Alpha virt. eigenvalues --    2.26768   2.32020   2.33958   2.37631   2.38148
 Alpha virt. eigenvalues --    2.41850   2.44922   2.56728   2.60075   2.63648
 Alpha virt. eigenvalues --   21.37225  21.48344  21.61085  21.97588  22.03102
 Alpha virt. eigenvalues --   22.09690
          Condensed to atoms (all electrons):
               1          2          3          4          5          6
     1  C    5.049290   0.625822  -0.031080  -0.003713  -0.007339  -0.010342
     2  C    0.625822   5.002057   0.290045  -0.020744   0.004543   0.002537
     3  C   -0.031080   0.290045   5.002564   0.616349  -0.004816  -0.001732
     4  C   -0.003713  -0.020744   0.616349   5.065153   0.003122  -0.000899
     5  C   -0.007339   0.004543  -0.004816   0.003122   4.952826   0.670257
     6  C   -0.010342   0.002537  -0.001732  -0.000899   0.670257   4.932365
     7  H    0.373113  -0.025424   0.014525  -0.000961   0.000221  -0.001474
     8  H   -0.027200   0.347841  -0.038104   0.008016   0.000013   0.000409
     9  H    0.009028  -0.041817   0.351340  -0.026129  -0.000008  -0.000061
    10  H   -0.000084   0.013741  -0.017632   0.366049   0.000149   0.000196
    11  H   -0.000391   0.000118  -0.000409   0.000332   0.380253  -0.025053
    12  H    0.000174  -0.000138   0.000063   0.000106  -0.033587   0.385697
    13  H    0.004088  -0.000252  -0.000757  -0.001129  -0.023634   0.375554
    14  H    0.000295   0.000085   0.000001  -0.000808   0.386162  -0.035741
    15  H    0.010942  -0.019109  -0.058391   0.394864  -0.001032  -0.003963
    16  H    0.387865  -0.049340  -0.013886   0.001692  -0.000739   0.003404
               7          8          9         10         11         12
     1  C    0.373113  -0.027200   0.009028  -0.000084  -0.000391   0.000174
     2  C   -0.025424   0.347841  -0.041817   0.013741   0.000118  -0.000138
     3  C    0.014525  -0.038104   0.351340  -0.017632  -0.000409   0.000063
     4  C   -0.000961   0.008016  -0.026129   0.366049   0.000332   0.000106
     5  C    0.000221   0.000013  -0.000008   0.000149   0.380253  -0.033587
     6  C   -0.001474   0.000409  -0.000061   0.000196  -0.025053   0.385697
     7  H    0.533655  -0.013381  -0.000294  -0.000000  -0.000017   0.000004
     8  H   -0.013381   0.543585  -0.000778  -0.000339  -0.000058  -0.000015
     9  H   -0.000294  -0.000778   0.542426  -0.013346   0.000025   0.000000
    10  H   -0.000000  -0.000339  -0.013346   0.531751   0.000388   0.000006
    11  H   -0.000017  -0.000058   0.000025   0.000388   0.526370   0.008154
    12  H    0.000004  -0.000015   0.000000   0.000006   0.008154   0.544096
    13  H   -0.000168   0.000242  -0.000010  -0.000014  -0.013625  -0.039975
    14  H   -0.000001   0.000003  -0.000001  -0.000053  -0.039288  -0.014010
    15  H    0.000015   0.000614   0.008042  -0.036647  -0.002109  -0.000208
    16  H   -0.036547   0.007999   0.000526   0.000091   0.000092   0.000012
              13         14         15         16
     1  C    0.004088   0.000295   0.010942   0.387865
     2  C   -0.000252   0.000085  -0.019109  -0.049340
     3  C   -0.000757   0.000001  -0.058391  -0.013886
     4  C   -0.001129  -0.000808   0.394864   0.001692
     5  C   -0.023634   0.386162  -0.001032  -0.000739
     6  C    0.375554  -0.035741  -0.003963   0.003404
     7  H   -0.000168  -0.000001   0.000015  -0.036547
     8  H    0.000242   0.000003   0.000614   0.007999
     9  H   -0.000010  -0.000001   0.008042   0.000526
    10  H   -0.000014  -0.000053  -0.036647   0.000091
    11  H   -0.013625  -0.039288  -0.002109   0.000092
    12  H   -0.039975  -0.014010  -0.000208   0.000012
    13  H    0.537086   0.008568   0.000305  -0.000074
    14  H    0.008568   0.543192   0.000710  -0.000037
    15  H    0.000305   0.000710   0.519794   0.001138
    16  H   -0.000074  -0.000037   0.001138   0.519719
 Mulliken charges:
               1
     1  C   -0.380468
     2  C   -0.129966
     3  C   -0.108079
     4  C   -0.401299
     5  C   -0.326392
     6  C   -0.291152
     7  H    0.156732
     8  H    0.171153
     9  H    0.171058
    10  H    0.155742
    11  H    0.165219
    12  H    0.149618
    13  H    0.153794
    14  H    0.150922
    15  H    0.185034
    16  H    0.178084
 Sum of Mulliken charges =  -0.00000
 Mulliken charges with hydrogens summed into heavy atoms:
               1
     1  C   -0.045653
     2  C    0.041187
     3  C    0.062979
     4  C   -0.060523
     5  C   -0.010251
     6  C    0.012261
 APT charges:
               1
     1  C   -0.823401
     2  C   -0.459400
     3  C   -0.640125
     4  C   -0.783284
     5  C   -0.749375
     6  C   -0.757703
     7  H    0.540622
     8  H    0.507884
     9  H    0.568543
    10  H    0.606182
    11  H    0.210786
    12  H    0.545047
    13  H    0.194268
    14  H    0.554041
    15  H    0.196540
    16  H    0.289376
 Sum of APT charges =  -0.00000
 APT charges with hydrogens summed into heavy atoms:
               1
     1  C    0.006597
     2  C    0.048484
     3  C   -0.071582
     4  C    0.019437
     5  C    0.015452
     6  C   -0.018388
 Electronic spatial extent (au):  <R**2>=            867.6966
 Charge=             -0.0000 electrons
 Dipole moment (field-independent basis, Debye):
    X=              0.0624    Y=             -0.0583    Z=              0.0047  Tot=              0.0855
 Quadrupole moment (field-independent basis, Debye-Ang):
   XX=            -36.3014   YY=            -36.4909   ZZ=            -43.9612
   XY=              0.4442   XZ=              1.9637   YZ=             -2.0417
 Traceless Quadrupole moment (field-independent basis, Debye-Ang):
   XX=              2.6164   YY=              2.4269   ZZ=             -5.0433
   XY=              0.4442   XZ=              1.9637   YZ=             -2.0417
 Octapole moment (field-independent basis, Debye-Ang**2):
  XXX=              4.7926  YYY=              0.2719  ZZZ=             -3.6570  XYY=             -0.0398
  XXY=             -1.1964  XXZ=             -3.0784  XZZ=              2.6088  YZZ=             -0.7092
  YYZ=              1.7432  XYZ=             -1.0003
 Hexadecapole moment (field-independent basis, Debye-Ang**3):
 XXXX=           -440.7100 YYYY=           -381.2790 ZZZZ=           -402.4716 XXXY=             31.5394
 XXXZ=            135.4962 YYYX=             35.5857 YYYZ=            -83.7242 ZZZX=            167.5893
 ZZZY=            -92.2754 XXYY=           -136.7721 XXZZ=           -153.0777 YYZZ=           -135.1872
 XXYZ=            -30.6114 YYXZ=             47.2703 ZZXY=             20.5334
 N-N= 2.033140138707D+02 E-N=-9.492662275870D+02  KE= 2.334179396147D+02
  Exact polarizability:   0.000   0.000   0.000   0.000   0.000   0.000
 Approx polarizability:  87.272  10.873  99.742   8.148  -4.427  50.942

 This type of calculation cannot be archived.


 Some scientists claim that hydrogen, because it is so
 plentiful, is the basic building block of the universe. 
 I dispute that. I say that stupidity is far more
 abundant than hydrogen, and THAT is the basic building 
 block of the universe.
                   --Frank Zappa
 Job cpu time:       0 days 10 hours 14 minutes  4.6 seconds.
 File lengths (MBytes):  RWF=     30 Int=      0 D2E=      0 Chk=      4 Scr=      1
 Normal termination of Gaussian 09 at Wed Apr 25 17:32:56 2018.
