 Entering Gaussian System, Link 0=g16
 Initial command:
 /opt/g16/l1.exe "/scratch/820/Gau-149528.inp" -scrdir="/scratch/820/"
 Entering Link 1 = /opt/g16/l1.exe PID=    149529.
  
 Copyright (c) 1988-2017, Gaussian, Inc.  All Rights Reserved.
  
 This is part of the Gaussian(R) 16 program.  It is based on
 the Gaussian(R) 09 system (copyright 2009, Gaussian, Inc.),
 the Gaussian(R) 03 system (copyright 2003, Gaussian, Inc.),
 the Gaussian(R) 98 system (copyright 1998, Gaussian, Inc.),
 the Gaussian(R) 94 system (copyright 1995, Gaussian, Inc.),
 the Gaussian 92(TM) system (copyright 1992, Gaussian, Inc.),
 the Gaussian 90(TM) system (copyright 1990, Gaussian, Inc.),
 the Gaussian 88(TM) system (copyright 1988, Gaussian, Inc.),
 the Gaussian 86(TM) system (copyright 1986, Carnegie Mellon
 University), and the Gaussian 82(TM) system (copyright 1983,
 Carnegie Mellon University). Gaussian is a federally registered
 trademark of Gaussian, Inc.
  
 This software contains proprietary and confidential information,
 including trade secrets, belonging to Gaussian, Inc.
  
 This software is provided under written license and may be
 used, copied, transmitted, or stored only in accord with that
 written license.
  
 The following legend is applicable only to US Government
 contracts under FAR:
  
                    RESTRICTED RIGHTS LEGEND
  
 Use, reproduction and disclosure by the US Government is
 subject to restrictions as set forth in subparagraphs (a)
 and (c) of the Commercial Computer Software - Restricted
 Rights clause in FAR 52.227-19.
  
 Gaussian, Inc.
 340 Quinnipiac St., Bldg. 40, Wallingford CT 06492
  
  
 ---------------------------------------------------------------
 Warning -- This program may not be used in any manner that
 competes with the business of Gaussian, Inc. or will provide
 assistance to any competitor of Gaussian, Inc.  The licensee
 of this program is prohibited from giving any competitor of
 Gaussian, Inc. access to this program.  By using this program,
 the user acknowledges that Gaussian, Inc. is engaged in the
 business of creating and licensing software in the field of
 computational chemistry and represents and warrants to the
 licensee that it is not a competitor of Gaussian, Inc. and that
 it will not use this program in any manner prohibited above.
 ---------------------------------------------------------------
  

 Cite this work as:
 Gaussian 16, Revision B.01,
 M. J. Frisch, G. W. Trucks, H. B. Schlegel, G. E. Scuseria, 
 M. A. Robb, J. R. Cheeseman, G. Scalmani, V. Barone, 
 G. A. Petersson, H. Nakatsuji, X. Li, M. Caricato, A. V. Marenich, 
 J. Bloino, B. G. Janesko, R. Gomperts, B. Mennucci, H. P. Hratchian, 
 J. V. Ortiz, A. F. Izmaylov, J. L. Sonnenberg, D. Williams-Young, 
 F. Ding, F. Lipparini, F. Egidi, J. Goings, B. Peng, A. Petrone, 
 T. Henderson, D. Ranasinghe, V. G. Zakrzewski, J. Gao, N. Rega, 
 G. Zheng, W. Liang, M. Hada, M. Ehara, K. Toyota, R. Fukuda, 
 J. Hasegawa, M. Ishida, T. Nakajima, Y. Honda, O. Kitao, H. Nakai, 
 T. Vreven, K. Throssell, J. A. Montgomery, Jr., J. E. Peralta, 
 F. Ogliaro, M. J. Bearpark, J. J. Heyd, E. N. Brothers, K. N. Kudin, 
 V. N. Staroverov, T. A. Keith, R. Kobayashi, J. Normand, 
 K. Raghavachari, A. P. Rendell, J. C. Burant, S. S. Iyengar, 
 J. Tomasi, M. Cossi, J. M. Millam, M. Klene, C. Adamo, R. Cammi, 
 J. W. Ochterski, R. L. Martin, K. Morokuma, O. Farkas, 
 J. B. Foresman, and D. J. Fox, Gaussian, Inc., Wallingford CT, 2016.
 
 ******************************************
 Gaussian 16:  ES64L-G16RevB.01 20-Dec-2017
                20-Jun-2020 
 ******************************************
 %nprocshared=16
 Will use up to   16 processors via shared memory.
 %mem=48GB
 %chk=MoCompH2CO2IRC_r.chk
 ----------------------------------------------------------------------
 # UBP86/GenECP Int=(Grid=Ultrafine,acc2e=12) SCF=(NoVarAcc,Tight,XQC,M
 axCyc=200) NoSymm # IRC=(Reverse,CalcAll,Recorrect=Never,Phase=(1,62),
 MaxPoints=1000,StepSize=10,maxcycle=1000,Report=cartesian)
 ----------------------------------------------------------------------
 1/6=1000,10=4,18=10,22=2,26=4,38=1,39=10,42=1000,44=3,71=1,101=1,102=62,129=10,131=1,172=1/1,23;
 2/12=2,15=1,17=6,18=5,29=1,40=1/2;
 3/5=7,11=2,16=1,17=8,25=1,27=12,30=1,71=2,74=404,75=-5,116=2,140=1/1,2,3;
 4//1;
 5/5=2,7=200,8=3,13=1,32=2,38=1,87=12/2,8;
 8/6=4,10=90,11=11,87=12/1;
 11/6=1,8=1,9=11,15=111,16=1,31=1,87=12/1,2,10;
 10/6=1,13=1,31=1,87=12/2;
 6/7=2,8=2,9=2,10=2,18=1,28=1,87=12/1;
 7/10=1,25=1,30=1,87=12/1,2,3,16;
 1/6=1000,10=4,18=10,22=2,26=4,39=10,42=1000,44=3,71=1,101=1,102=62,129=10,131=1/23(2);
 2/15=1,29=1/2;
 99/5=20/99;
 2/15=1,29=1/2;
 3/5=7,6=1,11=2,16=1,17=8,25=1,27=12,30=1,71=2,74=404,75=-5,82=7,116=2,140=1/1,2,3;
 4/5=5,16=3,69=1/1;
 5/5=2,7=200,8=3,13=1,32=2,38=1,87=12/2,8;
 8/6=4,10=90,11=11,87=12/1;
 11/6=1,8=1,9=11,15=111,16=1,31=1,87=12/1,2,10;
 10/6=1,13=1,31=1,87=12/2;
 7/10=1,25=1,30=1,87=12/1,2,3,16;
 1/6=1000,10=4,18=10,22=2,26=4,39=10,42=1000,44=3,71=1,101=1,102=62,129=10,131=1/23(-8);
 2/15=1,29=1/2;
 6/7=2,8=2,9=2,10=2,18=1,19=2,28=1,87=12/1;
 99/5=20/99;
 ----------------------------------------------------------------------
 IRC reverse from the transition state of the MHR [PY5Me2Mo(III)(H)(H)]
 ^+ + CO2 --> HCOOH +[PY5Me2Mo(III)O]^+ 2S+1=2 in gas phase
 ----------------------------------------------------------------------
 Symbolic Z-matrix:
 Charge =  1 Multiplicity = 2
 Mo                    0.00634   0.00499  -0.93039 
 O                    -0.48351   0.6604   -2.61402 
 N                    -1.66026  -1.35043  -0.86497 
 N                     1.46398  -1.56988  -0.36194 
 N                     1.7024    1.3354   -0.83607 
 N                    -1.56008   1.47375  -0.37628 
 C                    -2.51959  -1.37615   0.20645 
 N                     0.01283   0.00228   1.31901 
 C                    -2.48124  -0.19037   1.22216 
 C                    -2.5971    1.14823   0.44774 
 C                     2.53726  -1.27888   0.43672 
 C                    -2.81773  -3.25276  -1.84451 
 H                    -2.92619  -3.93187  -2.69457 
 C                    -3.46517  -2.41251   0.32247 
 H                    -4.11352  -2.47685   1.19616 
 C                     2.63221   1.26527   0.17116 
 C                     3.73213   0.13855   2.14777 
 H                     3.71247  -0.70501   2.85371 
 H                     3.73315   1.07102   2.73157 
 H                     4.68006   0.09375   1.59138 
 C                    -3.69663   2.01487   0.59168 
 H                    -4.53269   1.74504   1.23692 
 C                    -3.67528  -0.32491   2.19618 
 H                    -3.73817   0.54247   2.86972 
 H                    -3.58259  -1.22905   2.81698 
 H                    -4.62439  -0.38996   1.64385 
 C                     3.66389   2.21973   0.25536 
 H                     4.38957   2.18014   1.06713 
 C                     1.22547   0.22085   3.39528 
 H                     2.16547   0.34969   3.92959 
 C                    -1.16518  -0.04305   3.42737 
 H                    -2.09552  -0.13851   3.9853 
 C                     1.2027    0.12794   1.99536 
 C                     1.385    -2.8069   -0.93072 
 H                     0.4968   -2.99909  -1.53389 
 C                     2.52666   0.08494   1.17977 
 C                    -1.15883  -0.09659   2.02524 
 C                    -3.73349   3.23155  -0.10194 
 H                    -4.58974   3.90347   0.00858 
 C                     3.56423  -2.22202   0.61137 
 H                     4.43235  -1.98582   1.22613 
 C                     1.8558    2.30734  -1.79352 
 H                     1.12041   2.2697   -2.60152 
 C                     0.03438   0.13495   4.12259 
 C                     3.79088   3.22998  -0.70732 
 H                     4.59874   3.9635   -0.63508 
 C                     2.87282   3.25613  -1.7677 
 H                     2.93756   3.99647  -2.56985 
 C                     2.36487  -3.78592  -0.77516 
 H                     2.24466  -4.75108  -1.27284 
 C                    -1.6004    2.65782  -1.04903 
 H                    -0.76009   2.85216  -1.71421 
 C                    -2.65513   3.56177  -0.93417 
 H                    -2.62541   4.49876  -1.49639 
 C                     3.49045  -3.4812   -0.00305 
 H                     4.29913  -4.20594   0.12895 
 C                    -3.61113  -3.37059  -0.69274 
 H                    -4.34841  -4.17208  -0.59168 
 C                    -1.85932  -2.24334  -1.88559 
 H                    -1.2119   -2.10686  -2.75675 
 H                     0.01476   0.25952  -3.55344 
 H                     1.15761  -0.87321  -2.47006 
 H                     0.04301   0.19381   5.21486 
 O                     2.24922  -2.04062  -3.74622 
 C                     1.42882  -1.1386   -3.60236 
 O                     0.76117  -0.38545  -4.39085 
 
 IRC-IRC-IRC-IRC-IRC-IRC-IRC-IRC-IRC-IRC-IRC-IRC-IRC-IRC-IRC-IRC-IRC-IRC
 ------------------------------------------------------------------------
 INPUT DATA FOR L123
 ------------------------------------------------------------------------
 GENERAL PARAMETERS:
 Rxn path following direction = Reverse
 Maximum points per path      =1000
 Step size                    =   0.100 bohr
 Integration scheme           = HPC                                 
    Redo corrector integration= Never                               
    DWI Weight Power          =  2
    DWI will use Hessian update vectors when possible.
 Initial Hessian              = CalcFC
 Hessian evaluation           = Analytic at all predictor steps
                              = Update at all corrector steps
 Hessian updating method      = Bofill                              
 ------------------------------------------------------------------------
 IRC-IRC-IRC-IRC-IRC-IRC-IRC-IRC-IRC-IRC-IRC-IRC-IRC-IRC-IRC-IRC-IRC-IRC
 Symmetry turned off by external request.
 Stoichiometry    C30H27MoN5O3(1+,2)
 Framework group  C1[X(C30H27MoN5O3)]
 Deg. of freedom   192
 Full point group                 C1      NOp   1
                          Input orientation:                          
 ---------------------------------------------------------------------
 Center     Atomic      Atomic             Coordinates (Angstroms)
 Number     Number       Type             X           Y           Z
 ---------------------------------------------------------------------
      1         42           0        0.006338    0.004994   -0.930390
      2          8           0       -0.483509    0.660403   -2.614019
      3          7           0       -1.660260   -1.350432   -0.864965
      4          7           0        1.463978   -1.569883   -0.361944
      5          7           0        1.702402    1.335401   -0.836069
      6          7           0       -1.560078    1.473747   -0.376280
      7          6           0       -2.519593   -1.376148    0.206450
      8          7           0        0.012827    0.002278    1.319011
      9          6           0       -2.481235   -0.190368    1.222164
     10          6           0       -2.597104    1.148232    0.447744
     11          6           0        2.537263   -1.278876    0.436718
     12          6           0       -2.817733   -3.252760   -1.844507
     13          1           0       -2.926192   -3.931867   -2.694565
     14          6           0       -3.465173   -2.412515    0.322471
     15          1           0       -4.113520   -2.476852    1.196161
     16          6           0        2.632206    1.265270    0.171156
     17          6           0        3.732134    0.138549    2.147768
     18          1           0        3.712471   -0.705007    2.853711
     19          1           0        3.733145    1.071021    2.731574
     20          1           0        4.680059    0.093749    1.591376
     21          6           0       -3.696627    2.014869    0.591684
     22          1           0       -4.532690    1.745042    1.236922
     23          6           0       -3.675277   -0.324911    2.196177
     24          1           0       -3.738168    0.542473    2.869719
     25          1           0       -3.582593   -1.229052    2.816984
     26          1           0       -4.624390   -0.389963    1.643853
     27          6           0        3.663888    2.219726    0.255356
     28          1           0        4.389572    2.180144    1.067130
     29          6           0        1.225465    0.220848    3.395281
     30          1           0        2.165471    0.349691    3.929593
     31          6           0       -1.165184   -0.043045    3.427371
     32          1           0       -2.095519   -0.138505    3.985300
     33          6           0        1.202700    0.127943    1.995362
     34          6           0        1.384998   -2.806902   -0.930719
     35          1           0        0.496800   -2.999094   -1.533892
     36          6           0        2.526655    0.084943    1.179765
     37          6           0       -1.158826   -0.096589    2.025239
     38          6           0       -3.733494    3.231549   -0.101939
     39          1           0       -4.589742    3.903472    0.008584
     40          6           0        3.564229   -2.222021    0.611366
     41          1           0        4.432350   -1.985819    1.226133
     42          6           0        1.855802    2.307337   -1.793515
     43          1           0        1.120411    2.269697   -2.601520
     44          6           0        0.034377    0.134949    4.122589
     45          6           0        3.790882    3.229980   -0.707324
     46          1           0        4.598744    3.963498   -0.635077
     47          6           0        2.872816    3.256127   -1.767704
     48          1           0        2.937562    3.996468   -2.569845
     49          6           0        2.364872   -3.785922   -0.775163
     50          1           0        2.244662   -4.751075   -1.272839
     51          6           0       -1.600399    2.657815   -1.049027
     52          1           0       -0.760086    2.852159   -1.714214
     53          6           0       -2.655130    3.561769   -0.934169
     54          1           0       -2.625411    4.498759   -1.496388
     55          6           0        3.490451   -3.481201   -0.003049
     56          1           0        4.299135   -4.205937    0.128951
     57          6           0       -3.611131   -3.370588   -0.692738
     58          1           0       -4.348408   -4.172083   -0.591679
     59          6           0       -1.859318   -2.243341   -1.885585
     60          1           0       -1.211902   -2.106862   -2.756751
     61          1           0        0.014762    0.259517   -3.553436
     62          1           0        1.157614   -0.873212   -2.470055
     63          1           0        0.043010    0.193808    5.214857
     64          8           0        2.249223   -2.040620   -3.746219
     65          6           0        1.428819   -1.138601   -3.602363
     66          8           0        0.761171   -0.385447   -4.390846
 ---------------------------------------------------------------------
 Rotational constants (GHZ):           0.1235335           0.0994106           0.0934087
 General basis read from cards:  (5D, 7F)
 ======================================================================================================
                                       Pseudopotential Parameters
 ======================================================================================================
  Center     Atomic      Valence      Angular      Power
  Number     Number     Electrons     Momentum     of R      Exponent        Coefficient   SO-Coeffient
 ======================================================================================================
    1         42           14
                                      G and up 
                                                     2        1.0000000        0.00000000    0.00000000
                                      S - G
                                                     2        9.7145940      180.10310800    0.00000000
                                                     2        4.6805000       24.99722800    0.00000000
                                      P - G
                                                     2        8.1421370      123.77275200    0.00000000
                                                     2        4.6259860       19.53022800    0.00000000
                                      D - G
                                                     2        6.6184150       48.37502200    0.00000000
                                                     2        3.2487520        8.89205300    0.00000000
                                      F - G
                                                     2        9.4500000      -24.80517700    0.00000000
                                                     2        4.7200000       -4.15378200    0.00000000
    2          8
                                   No pseudopotential on this center.
    3          7
                                   No pseudopotential on this center.
    4          7
                                   No pseudopotential on this center.
    5          7
                                   No pseudopotential on this center.
    6          7
                                   No pseudopotential on this center.
    7          6
                                   No pseudopotential on this center.
    8          7
                                   No pseudopotential on this center.
    9          6
                                   No pseudopotential on this center.
   10          6
                                   No pseudopotential on this center.
   11          6
                                   No pseudopotential on this center.
   12          6
                                   No pseudopotential on this center.
   13          1
                                   No pseudopotential on this center.
   14          6
                                   No pseudopotential on this center.
   15          1
                                   No pseudopotential on this center.
   16          6
                                   No pseudopotential on this center.
   17          6
                                   No pseudopotential on this center.
   18          1
                                   No pseudopotential on this center.
   19          1
                                   No pseudopotential on this center.
   20          1
                                   No pseudopotential on this center.
   21          6
                                   No pseudopotential on this center.
   22          1
                                   No pseudopotential on this center.
   23          6
                                   No pseudopotential on this center.
   24          1
                                   No pseudopotential on this center.
   25          1
                                   No pseudopotential on this center.
   26          1
                                   No pseudopotential on this center.
   27          6
                                   No pseudopotential on this center.
   28          1
                                   No pseudopotential on this center.
   29          6
                                   No pseudopotential on this center.
   30          1
                                   No pseudopotential on this center.
   31          6
                                   No pseudopotential on this center.
   32          1
                                   No pseudopotential on this center.
   33          6
                                   No pseudopotential on this center.
   34          6
                                   No pseudopotential on this center.
   35          1
                                   No pseudopotential on this center.
   36          6
                                   No pseudopotential on this center.
   37          6
                                   No pseudopotential on this center.
   38          6
                                   No pseudopotential on this center.
   39          1
                                   No pseudopotential on this center.
   40          6
                                   No pseudopotential on this center.
   41          1
                                   No pseudopotential on this center.
   42          6
                                   No pseudopotential on this center.
   43          1
                                   No pseudopotential on this center.
   44          6
                                   No pseudopotential on this center.
   45          6
                                   No pseudopotential on this center.
   46          1
                                   No pseudopotential on this center.
   47          6
                                   No pseudopotential on this center.
   48          1
                                   No pseudopotential on this center.
   49          6
                                   No pseudopotential on this center.
   50          1
                                   No pseudopotential on this center.
   51          6
                                   No pseudopotential on this center.
   52          1
                                   No pseudopotential on this center.
   53          6
                                   No pseudopotential on this center.
   54          1
                                   No pseudopotential on this center.
   55          6
                                   No pseudopotential on this center.
   56          1
                                   No pseudopotential on this center.
   57          6
                                   No pseudopotential on this center.
   58          1
                                   No pseudopotential on this center.
   59          6
                                   No pseudopotential on this center.
   60          1
                                   No pseudopotential on this center.
   61          1
                                   No pseudopotential on this center.
   62          1
                                   No pseudopotential on this center.
   63          1
                                   No pseudopotential on this center.
   64          8
                                   No pseudopotential on this center.
   65          6
                                   No pseudopotential on this center.
   66          8
                                   No pseudopotential on this center.
 ======================================================================================================
   855 basis functions,  1470 primitive gaussians,   896 cartesian basis functions
   140 alpha electrons      139 beta electrons
       nuclear repulsion energy      4926.9483183685 Hartrees.
 NAtoms=   66 NActive=   66 NUniq=   66 SFac= 1.00D+00 NAtFMM=   60 NAOKFM=T Big=T
 Integral buffers will be    131072 words long.
 Raffenetti 2 integral format.
 Two-electron integral symmetry is turned off.
 One-electron integrals computed using PRISM.
   1 Symmetry operations used in ECPInt.
 ECPInt:  NShTT=   40755 NPrTT=  188354 LenC2=   34939 LenP2D=   97370.
 LDataN:  DoStor=T MaxTD1= 6 Len=  172
 NBasis=   855 RedAO= T EigKep=  1.21D-06  NBF=   855
 NBsUse=   846 1.00D-06 EigRej=  9.48D-07 NBFU=   846
 Defaulting to unpruned grid for atomic number  42.
 ExpMin= 1.50D-02 ExpMax= 5.48D+03 ExpMxC= 8.25D+02 IAcc=3 IRadAn=         5 AccDes= 0.00D+00
 Harris functional with IExCor=  404 and IRadAn=       5 diagonalized for initial guess.
 HarFok:  IExCor=  404 AccDes= 0.00D+00 IRadAn=         5 IDoV= 1 UseB2=F ITyADJ=14
 ICtDFT=  3500011 ScaDFX=  1.000000  1.000000  1.000000  1.000000
 Defaulting to unpruned grid for atomic number  42.
 FoFCou: FMM=F IPFlag=           0 FMFlag=      100000 FMFlg1=        2001
         NFxFlg=           0 DoJE=T BraDBF=F KetDBF=T FulRan=T
         wScrn=  0.000000 ICntrl=       500 IOpCl=  0 I1Cent=   200000004 NGrid=           0
         NMat0=    1 NMatS0=      1 NMatT0=    0 NMatD0=    1 NMtDS0=    0 NMtDT0=    0
 Symmetry not used in FoFCou.
 Initial guess <Sx>= 0.0000 <Sy>= 0.0000 <Sz>= 0.5000 <S**2>= 0.7500 S= 0.5000
 Requested convergence on RMS density matrix=1.00D-08 within 128 cycles.
 Requested convergence on MAX density matrix=1.00D-06.
 Requested convergence on             energy=1.00D-06.
 No special actions if energy rises.
 Defaulting to unpruned grid for atomic number  42.
 Defaulting to unpruned grid for atomic number  42.
 Defaulting to unpruned grid for atomic number  42.
 Defaulting to unpruned grid for atomic number  42.
 Defaulting to unpruned grid for atomic number  42.
 Defaulting to unpruned grid for atomic number  42.
 Defaulting to unpruned grid for atomic number  42.
 Defaulting to unpruned grid for atomic number  42.
 Defaulting to unpruned grid for atomic number  42.
 Defaulting to unpruned grid for atomic number  42.
 Defaulting to unpruned grid for atomic number  42.
 Defaulting to unpruned grid for atomic number  42.
 Defaulting to unpruned grid for atomic number  42.
 Defaulting to unpruned grid for atomic number  42.
 Defaulting to unpruned grid for atomic number  42.
 Defaulting to unpruned grid for atomic number  42.
 EnCoef did     5 forward-backward iterations
 EnCoef did   100 forward-backward iterations
 EnCoef did   100 forward-backward iterations
 EnCoef did   100 forward-backward iterations
 EnCoef did     4 forward-backward iterations
 EnCoef did     2 forward-backward iterations
 EnCoef did     3 forward-backward iterations
 EnCoef did     1 forward-backward iterations
 Restarting incremental Fock formation.
 SCF Done:  E(UB-P86) =  -1727.15228214     A.U. after   31 cycles
            NFock= 31  Conv=0.40D-08     -V/T= 2.0349
 <Sx>= 0.0000 <Sy>= 0.0000 <Sz>= 0.5000 <S**2>= 0.7564 S= 0.5032
 <L.S>=  0.00000000000    
 Annihilation of the first spin contaminant:
 S**2 before annihilation     0.7564,   after     0.7500
 QCSCF skips out because SCF is already converged.
 DoSCS=F DFT=T ScalE2(SS,OS)=  1.000000  1.000000
 Range of M.O.s used for correlation:     1   846
 NBasis=   855 NAE=   140 NBE=   139 NFC=     0 NFV=     0
 NROrb=    846 NOA=   140 NOB=   139 NVA=   706 NVB=   707

 **** Warning!!: The largest alpha MO coefficient is  0.19961647D+03


 **** Warning!!: The smallest alpha delta epsilon is  0.17909378D-01


 **** Warning!!: The largest beta MO coefficient is  0.19860613D+03


 **** Warning!!: The smallest beta delta epsilon is  0.32012833D-01

   1 Symmetry operations used in ECPInt.
 ECPInt:  NShTT=   40755 NPrTT=  188354 LenC2=   34939 LenP2D=   97370.
 LDataN:  DoStor=T MaxTD1= 7 Len=  274
 Number of processors reduced to   8 by ecpmxn.
 Symmetrizing basis deriv contribution to polar:
 IMax=3 JMax=2 DiffMx= 0.00D+00
 G2DrvN: will do    67 centers at a time, making    1 passes.
 Calling FoFCou, ICntrl=  3507 FMM=T I1Cent=   0 AccDes= 1.00D-12.
 Defaulting to unpruned grid for atomic number  42.
 Defaulting to unpruned grid for atomic number  42.
 Defaulting to unpruned grid for atomic number  42.
 Defaulting to unpruned grid for atomic number  42.
 Defaulting to unpruned grid for atomic number  42.
 Defaulting to unpruned grid for atomic number  42.
 Defaulting to unpruned grid for atomic number  42.
 Defaulting to unpruned grid for atomic number  42.
 Defaulting to unpruned grid for atomic number  42.
 Defaulting to unpruned grid for atomic number  42.
 Defaulting to unpruned grid for atomic number  42.
 Defaulting to unpruned grid for atomic number  42.
 Defaulting to unpruned grid for atomic number  42.
 Defaulting to unpruned grid for atomic number  42.
 Defaulting to unpruned grid for atomic number  42.
 Defaulting to unpruned grid for atomic number  42.
 End of G2Drv F.D. properties file   721 does not exist.
 End of G2Drv F.D. properties file   722 does not exist.
 End of G2Drv F.D. properties file   788 does not exist.
          IDoAtm=11111111111111111111111111111111111111111111111111
          IDoAtm=1111111111111111
          Differentiating once with respect to nuclear coordinates.
 Defaulting to unpruned grid for atomic number  42.
 CalDSu exits because no D1Ps are significant.
 Defaulting to unpruned grid for atomic number  42.
 Defaulting to unpruned grid for atomic number  42.
 Defaulting to unpruned grid for atomic number  42.
 Defaulting to unpruned grid for atomic number  42.
 Defaulting to unpruned grid for atomic number  42.
 Defaulting to unpruned grid for atomic number  42.
 Defaulting to unpruned grid for atomic number  42.
 Defaulting to unpruned grid for atomic number  42.
 Defaulting to unpruned grid for atomic number  42.
 Defaulting to unpruned grid for atomic number  42.
 Defaulting to unpruned grid for atomic number  42.
 Defaulting to unpruned grid for atomic number  42.
 Defaulting to unpruned grid for atomic number  42.
 Defaulting to unpruned grid for atomic number  42.
 Defaulting to unpruned grid for atomic number  42.
 Defaulting to unpruned grid for atomic number  42.
          There are   201 degrees of freedom in the 1st order CPHF.  IDoFFX=6 NUNeed=     0.
    195 vectors produced by pass  0 Test12= 1.97D-13 1.00D-09 XBig12= 2.62D+00 5.71D-01.
 AX will form    72 AO Fock derivatives at one time.
    195 vectors produced by pass  1 Test12= 1.97D-13 1.00D-09 XBig12= 3.35D+00 2.55D-01.
    195 vectors produced by pass  2 Test12= 1.97D-13 1.00D-09 XBig12= 9.79D-03 1.36D-02.
    195 vectors produced by pass  3 Test12= 1.97D-13 1.00D-09 XBig12= 9.53D-05 8.09D-04.
    195 vectors produced by pass  4 Test12= 1.97D-13 1.00D-09 XBig12= 3.31D-07 4.88D-05.
    194 vectors produced by pass  5 Test12= 1.97D-13 1.00D-09 XBig12= 8.39D-10 1.10D-06.
     65 vectors produced by pass  6 Test12= 1.97D-13 1.00D-09 XBig12= 1.51D-12 3.53D-08.
      3 vectors produced by pass  7 Test12= 1.97D-13 1.00D-09 XBig12= 4.08D-15 2.12D-09.
      1 vectors produced by pass  8 Test12= 1.97D-13 1.00D-09 XBig12= 1.38D-16 1.14D-09.
      1 vectors produced by pass  9 Test12= 1.97D-13 1.00D-09 XBig12= 2.76D-16 1.03D-09.
 InvSVY:  IOpt=1 It=  1 EMax= 2.33D-15
 Solved reduced A of dimension  1239 with   201 vectors.
 End of Minotr F.D. properties file   721 does not exist.
 End of Minotr F.D. properties file   722 does not exist.
 End of Minotr F.D. properties file   788 does not exist.

 **********************************************************************

            Population analysis using the SCF Density.

 **********************************************************************

 Alpha  occ. eigenvalues --  -18.88743 -18.86742 -18.86681 -14.18621 -14.18495
 Alpha  occ. eigenvalues --  -14.18112 -14.17546 -14.17510 -10.11045 -10.09794
 Alpha  occ. eigenvalues --  -10.09711 -10.09215 -10.09019 -10.08757 -10.08528
 Alpha  occ. eigenvalues --  -10.08515 -10.08368 -10.07432 -10.06893 -10.06686
 Alpha  occ. eigenvalues --  -10.05981 -10.05499 -10.05063 -10.05051 -10.04847
 Alpha  occ. eigenvalues --  -10.04783 -10.04618 -10.04549 -10.04301 -10.04254
 Alpha  occ. eigenvalues --  -10.04063 -10.04000 -10.03975 -10.03827 -10.03825
 Alpha  occ. eigenvalues --  -10.03416 -10.03316 -10.03265  -2.56011  -1.61405
 Alpha  occ. eigenvalues --   -1.59327  -1.58316  -1.06584  -1.01495  -1.00160
 Alpha  occ. eigenvalues --   -0.99979  -0.99370  -0.98777  -0.98629  -0.92814
 Alpha  occ. eigenvalues --   -0.89470  -0.87538  -0.86156  -0.85236  -0.85118
 Alpha  occ. eigenvalues --   -0.84692  -0.84394  -0.81858  -0.81394  -0.81189
 Alpha  occ. eigenvalues --   -0.78984  -0.77633  -0.74283  -0.73132  -0.69884
 Alpha  occ. eigenvalues --   -0.69361  -0.69154  -0.69070  -0.68859  -0.68774
 Alpha  occ. eigenvalues --   -0.68582  -0.68251  -0.65576  -0.63603  -0.60572
 Alpha  occ. eigenvalues --   -0.60064  -0.59732  -0.59539  -0.59213  -0.58302
 Alpha  occ. eigenvalues --   -0.56556  -0.56441  -0.55873  -0.55769  -0.55646
 Alpha  occ. eigenvalues --   -0.55409  -0.54093  -0.53804  -0.53296  -0.53075
 Alpha  occ. eigenvalues --   -0.52486  -0.52136  -0.51612  -0.51214  -0.50756
 Alpha  occ. eigenvalues --   -0.50216  -0.49786  -0.49310  -0.49058  -0.48223
 Alpha  occ. eigenvalues --   -0.47632  -0.47560  -0.47502  -0.47413  -0.47270
 Alpha  occ. eigenvalues --   -0.47150  -0.46838  -0.46454  -0.46003  -0.45421
 Alpha  occ. eigenvalues --   -0.45307  -0.45060  -0.44856  -0.44343  -0.43980
 Alpha  occ. eigenvalues --   -0.43839  -0.43700  -0.43267  -0.42191  -0.41780
 Alpha  occ. eigenvalues --   -0.41239  -0.40330  -0.39195  -0.39169  -0.38630
 Alpha  occ. eigenvalues --   -0.38358  -0.37737  -0.37589  -0.36797  -0.36596
 Alpha  occ. eigenvalues --   -0.36239  -0.35799  -0.35628  -0.35068  -0.34592
 Alpha  occ. eigenvalues --   -0.34129  -0.33763  -0.30358  -0.25817  -0.23503
 Alpha virt. eigenvalues --   -0.21712  -0.19382  -0.19078  -0.18930  -0.18324
 Alpha virt. eigenvalues --   -0.17983  -0.17766  -0.17420  -0.17019  -0.15813
 Alpha virt. eigenvalues --   -0.14797  -0.12748  -0.10817  -0.10111  -0.09929
 Alpha virt. eigenvalues --   -0.08937  -0.08709  -0.08308  -0.08014  -0.07686
 Alpha virt. eigenvalues --   -0.07545  -0.07299  -0.07227  -0.06320  -0.05992
 Alpha virt. eigenvalues --   -0.05904  -0.05824  -0.05681  -0.05449  -0.05345
 Alpha virt. eigenvalues --   -0.04658  -0.04389  -0.03919  -0.03758  -0.03739
 Alpha virt. eigenvalues --   -0.03360  -0.02887  -0.02833  -0.02678  -0.02570
 Alpha virt. eigenvalues --   -0.02433  -0.02243  -0.01988  -0.01599  -0.01388
 Alpha virt. eigenvalues --   -0.01224  -0.00904  -0.00823  -0.00632  -0.00498
 Alpha virt. eigenvalues --   -0.00317  -0.00081   0.00026   0.00225   0.00471
 Alpha virt. eigenvalues --    0.00733   0.00953   0.01029   0.01711   0.01907
 Alpha virt. eigenvalues --    0.02158   0.02530   0.02703   0.02940   0.03225
 Alpha virt. eigenvalues --    0.03400   0.03537   0.03590   0.03772   0.03999
 Alpha virt. eigenvalues --    0.04106   0.04318   0.04405   0.04869   0.05030
 Alpha virt. eigenvalues --    0.05305   0.05348   0.05572   0.05685   0.05905
 Alpha virt. eigenvalues --    0.06107   0.06232   0.06412   0.06559   0.06670
 Alpha virt. eigenvalues --    0.06884   0.06978   0.07071   0.07322   0.07457
 Alpha virt. eigenvalues --    0.07821   0.07861   0.08009   0.08152   0.08333
 Alpha virt. eigenvalues --    0.08501   0.08535   0.08759   0.09054   0.09253
 Alpha virt. eigenvalues --    0.09413   0.09517   0.09750   0.10027   0.10278
 Alpha virt. eigenvalues --    0.10389   0.10520   0.10706   0.10777   0.10850
 Alpha virt. eigenvalues --    0.11153   0.11297   0.11529   0.11753   0.11974
 Alpha virt. eigenvalues --    0.12188   0.12384   0.12414   0.12555   0.12812
 Alpha virt. eigenvalues --    0.12891   0.13037   0.13285   0.13397   0.13547
 Alpha virt. eigenvalues --    0.13629   0.13735   0.14119   0.14358   0.14439
 Alpha virt. eigenvalues --    0.14696   0.14934   0.14985   0.15310   0.15478
 Alpha virt. eigenvalues --    0.15609   0.15699   0.16071   0.16124   0.16291
 Alpha virt. eigenvalues --    0.16452   0.16759   0.16864   0.16941   0.17182
 Alpha virt. eigenvalues --    0.17420   0.17531   0.17646   0.17677   0.17877
 Alpha virt. eigenvalues --    0.18091   0.18296   0.18535   0.18570   0.18757
 Alpha virt. eigenvalues --    0.18958   0.19291   0.19430   0.19760   0.19891
 Alpha virt. eigenvalues --    0.20089   0.20243   0.20515   0.20814   0.21008
 Alpha virt. eigenvalues --    0.21194   0.21560   0.21847   0.22027   0.22292
 Alpha virt. eigenvalues --    0.22405   0.22614   0.22674   0.23651   0.23888
 Alpha virt. eigenvalues --    0.24102   0.24259   0.24346   0.24564   0.24710
 Alpha virt. eigenvalues --    0.25159   0.25260   0.25758   0.25791   0.26015
 Alpha virt. eigenvalues --    0.26174   0.26494   0.27234   0.27470   0.27531
 Alpha virt. eigenvalues --    0.27717   0.28071   0.28284   0.28554   0.28867
 Alpha virt. eigenvalues --    0.29269   0.29634   0.29896   0.30150   0.30454
 Alpha virt. eigenvalues --    0.30912   0.31234   0.31284   0.31496   0.31718
 Alpha virt. eigenvalues --    0.31832   0.32099   0.32776   0.33072   0.33180
 Alpha virt. eigenvalues --    0.33769   0.34393   0.34789   0.34907   0.35287
 Alpha virt. eigenvalues --    0.35409   0.35681   0.36285   0.36927   0.37392
 Alpha virt. eigenvalues --    0.37530   0.37770   0.38366   0.38722   0.38945
 Alpha virt. eigenvalues --    0.39167   0.39280   0.39484   0.40740   0.41177
 Alpha virt. eigenvalues --    0.41363   0.41576   0.42203   0.42502   0.42639
 Alpha virt. eigenvalues --    0.43425   0.43792   0.44171   0.45053   0.45176
 Alpha virt. eigenvalues --    0.46309   0.49880   0.50367   0.51999   0.52650
 Alpha virt. eigenvalues --    0.53239   0.53790   0.54170   0.54897   0.55356
 Alpha virt. eigenvalues --    0.56535   0.57290   0.57514   0.57803   0.58205
 Alpha virt. eigenvalues --    0.58308   0.58585   0.58679   0.59240   0.59457
 Alpha virt. eigenvalues --    0.59787   0.60400   0.60550   0.60790   0.60852
 Alpha virt. eigenvalues --    0.61293   0.61733   0.62196   0.62535   0.63048
 Alpha virt. eigenvalues --    0.63304   0.63521   0.63595   0.64259   0.64690
 Alpha virt. eigenvalues --    0.65257   0.65389   0.65636   0.66287   0.66709
 Alpha virt. eigenvalues --    0.67060   0.67512   0.67962   0.68427   0.68942
 Alpha virt. eigenvalues --    0.70020   0.70067   0.70679   0.71019   0.71712
 Alpha virt. eigenvalues --    0.71969   0.72313   0.72634   0.73015   0.73598
 Alpha virt. eigenvalues --    0.73750   0.74068   0.74646   0.74987   0.75159
 Alpha virt. eigenvalues --    0.75452   0.75640   0.76569   0.76921   0.77163
 Alpha virt. eigenvalues --    0.77962   0.78281   0.78780   0.78966   0.79123
 Alpha virt. eigenvalues --    0.79526   0.79824   0.80122   0.80414   0.80838
 Alpha virt. eigenvalues --    0.80879   0.81345   0.81903   0.82202   0.82716
 Alpha virt. eigenvalues --    0.83061   0.83872   0.84466   0.85518   0.85842
 Alpha virt. eigenvalues --    0.86138   0.86918   0.87225   0.87786   0.88280
 Alpha virt. eigenvalues --    0.89224   0.89500   0.90190   0.90512   0.91204
 Alpha virt. eigenvalues --    0.92178   0.92739   0.93095   0.94090   0.94428
 Alpha virt. eigenvalues --    0.95409   0.95744   0.96417   0.97128   0.97313
 Alpha virt. eigenvalues --    0.97574   0.98239   0.98352   0.98452   0.99384
 Alpha virt. eigenvalues --    1.00378   1.01207   1.01981   1.02620   1.03113
 Alpha virt. eigenvalues --    1.03388   1.04236   1.04890   1.05417   1.05819
 Alpha virt. eigenvalues --    1.06087   1.06669   1.07042   1.07630   1.07828
 Alpha virt. eigenvalues --    1.08394   1.08863   1.09364   1.09842   1.10312
 Alpha virt. eigenvalues --    1.10375   1.10747   1.11214   1.12061   1.12352
 Alpha virt. eigenvalues --    1.13169   1.13833   1.14560   1.14822   1.15670
 Alpha virt. eigenvalues --    1.16186   1.16458   1.17135   1.17420   1.18277
 Alpha virt. eigenvalues --    1.18688   1.19000   1.19618   1.20233   1.20796
 Alpha virt. eigenvalues --    1.21088   1.21474   1.21694   1.22131   1.22877
 Alpha virt. eigenvalues --    1.22972   1.23148   1.23282   1.23633   1.24419
 Alpha virt. eigenvalues --    1.24569   1.25073   1.25473   1.25681   1.26026
 Alpha virt. eigenvalues --    1.26571   1.27248   1.27823   1.27860   1.28929
 Alpha virt. eigenvalues --    1.28941   1.29493   1.29796   1.30411   1.31782
 Alpha virt. eigenvalues --    1.32110   1.32827   1.33363   1.33508   1.34286
 Alpha virt. eigenvalues --    1.35466   1.35737   1.36548   1.36976   1.37965
 Alpha virt. eigenvalues --    1.38323   1.39625   1.40070   1.40282   1.41088
 Alpha virt. eigenvalues --    1.42120   1.42842   1.43624   1.44485   1.44811
 Alpha virt. eigenvalues --    1.45717   1.47302   1.48240   1.48521   1.49351
 Alpha virt. eigenvalues --    1.49680   1.50965   1.52452   1.52759   1.54659
 Alpha virt. eigenvalues --    1.55390   1.56048   1.56348   1.58560   1.59115
 Alpha virt. eigenvalues --    1.59196   1.60175   1.60726   1.62131   1.62596
 Alpha virt. eigenvalues --    1.62713   1.63380   1.63719   1.64881   1.65295
 Alpha virt. eigenvalues --    1.65492   1.66216   1.66396   1.67150   1.67452
 Alpha virt. eigenvalues --    1.67754   1.68621   1.69031   1.69152   1.70085
 Alpha virt. eigenvalues --    1.70372   1.70945   1.71471   1.71985   1.72252
 Alpha virt. eigenvalues --    1.72722   1.73054   1.73681   1.74288   1.74823
 Alpha virt. eigenvalues --    1.75416   1.75783   1.76337   1.76678   1.77039
 Alpha virt. eigenvalues --    1.77426   1.77835   1.78497   1.78968   1.79397
 Alpha virt. eigenvalues --    1.79916   1.80231   1.80398   1.80948   1.81229
 Alpha virt. eigenvalues --    1.81717   1.81899   1.82188   1.82386   1.82752
 Alpha virt. eigenvalues --    1.83110   1.83501   1.83789   1.84214   1.84565
 Alpha virt. eigenvalues --    1.84962   1.85680   1.86279   1.86498   1.86848
 Alpha virt. eigenvalues --    1.87416   1.87866   1.88247   1.88637   1.89661
 Alpha virt. eigenvalues --    1.90314   1.91016   1.91612   1.92148   1.92629
 Alpha virt. eigenvalues --    1.93558   1.94853   1.95055   1.96181   1.96972
 Alpha virt. eigenvalues --    1.97828   1.98520   1.99744   2.00319   2.01297
 Alpha virt. eigenvalues --    2.02003   2.02323   2.03570   2.04234   2.04802
 Alpha virt. eigenvalues --    2.05176   2.05560   2.06063   2.07341   2.07547
 Alpha virt. eigenvalues --    2.08022   2.08751   2.09297   2.09885   2.10732
 Alpha virt. eigenvalues --    2.11003   2.11630   2.12196   2.12300   2.12623
 Alpha virt. eigenvalues --    2.12846   2.13581   2.13996   2.15112   2.16085
 Alpha virt. eigenvalues --    2.16188   2.16908   2.18236   2.18712   2.18908
 Alpha virt. eigenvalues --    2.19301   2.19624   2.20390   2.20575   2.21040
 Alpha virt. eigenvalues --    2.21378   2.21460   2.22227   2.22662   2.22897
 Alpha virt. eigenvalues --    2.23208   2.25725   2.26681   2.26813   2.28373
 Alpha virt. eigenvalues --    2.28778   2.28997   2.29599   2.30148   2.31260
 Alpha virt. eigenvalues --    2.31848   2.32368   2.32688   2.33138   2.33619
 Alpha virt. eigenvalues --    2.34179   2.34779   2.34988   2.35786   2.36258
 Alpha virt. eigenvalues --    2.36921   2.37306   2.37524   2.37937   2.38659
 Alpha virt. eigenvalues --    2.39093   2.39792   2.40007   2.40354   2.41037
 Alpha virt. eigenvalues --    2.42147   2.42782   2.43154   2.43509   2.44566
 Alpha virt. eigenvalues --    2.44857   2.45288   2.45657   2.47086   2.47731
 Alpha virt. eigenvalues --    2.48776   2.49338   2.49673   2.49781   2.51560
 Alpha virt. eigenvalues --    2.51706   2.52192   2.52253   2.53302   2.53606
 Alpha virt. eigenvalues --    2.54438   2.55394   2.55678   2.55963   2.56849
 Alpha virt. eigenvalues --    2.57479   2.59318   2.59801   2.60423   2.60925
 Alpha virt. eigenvalues --    2.61702   2.61993   2.63399   2.64347   2.64716
 Alpha virt. eigenvalues --    2.65470   2.65581   2.66457   2.66602   2.67657
 Alpha virt. eigenvalues --    2.67762   2.68581   2.70125   2.71544   2.73174
 Alpha virt. eigenvalues --    2.74549   2.76769   2.77051   2.77857   2.78989
 Alpha virt. eigenvalues --    2.79611   2.81105   2.82314   2.82916   2.84621
 Alpha virt. eigenvalues --    2.84939   2.87523   2.88191   2.88627   2.90045
 Alpha virt. eigenvalues --    2.90825   2.93570   2.93745   3.01894   3.03298
 Alpha virt. eigenvalues --    3.04107   3.05128   3.06207   3.07502   3.07970
 Alpha virt. eigenvalues --    3.08293   3.08579   3.08837   3.09056   3.09908
 Alpha virt. eigenvalues --    3.10051   3.10346   3.10468   3.10640   3.11536
 Alpha virt. eigenvalues --    3.12062   3.13109   3.16254   3.17130   3.17330
 Alpha virt. eigenvalues --    3.17723   3.23942   3.26087   3.31601   3.31781
 Alpha virt. eigenvalues --    3.31823   3.31953   3.32447   3.32654   3.33501
 Alpha virt. eigenvalues --    3.34569   3.59912   3.65215   3.65349   3.65756
 Alpha virt. eigenvalues --    3.66385   3.67204  30.94218  31.00631  31.04801
 Alpha virt. eigenvalues --   40.20565
  Beta  occ. eigenvalues --  -18.88760 -18.86692 -18.86384 -14.18639 -14.18504
  Beta  occ. eigenvalues --  -14.18123 -14.17558 -14.17513 -10.11044 -10.09737
  Beta  occ. eigenvalues --  -10.09659 -10.09186 -10.09015 -10.08703 -10.08532
  Beta  occ. eigenvalues --  -10.08520 -10.08366 -10.07415 -10.06897 -10.06617
  Beta  occ. eigenvalues --  -10.05968 -10.05428 -10.05080 -10.05068 -10.04824
  Beta  occ. eigenvalues --  -10.04790 -10.04624 -10.04547 -10.04284 -10.04212
  Beta  occ. eigenvalues --  -10.04069 -10.04000 -10.03973 -10.03850 -10.03831
  Beta  occ. eigenvalues --  -10.03417 -10.03315 -10.03265  -2.54608  -1.59520
  Beta  occ. eigenvalues --   -1.58611  -1.56364  -1.06601  -1.01454  -1.00154
  Beta  occ. eigenvalues --   -0.99980  -0.99349  -0.98735  -0.98610  -0.92091
  Beta  occ. eigenvalues --   -0.89428  -0.87512  -0.86093  -0.85217  -0.85118
  Beta  occ. eigenvalues --   -0.84627  -0.84394  -0.81810  -0.81354  -0.81171
  Beta  occ. eigenvalues --   -0.78958  -0.77610  -0.74276  -0.73123  -0.69790
  Beta  occ. eigenvalues --   -0.69342  -0.69133  -0.69054  -0.68810  -0.68763
  Beta  occ. eigenvalues --   -0.68518  -0.68236  -0.65534  -0.63574  -0.60558
  Beta  occ. eigenvalues --   -0.60050  -0.59704  -0.59515  -0.59178  -0.58270
  Beta  occ. eigenvalues --   -0.56522  -0.56383  -0.55857  -0.55757  -0.55605
  Beta  occ. eigenvalues --   -0.55390  -0.54062  -0.53777  -0.53272  -0.53055
  Beta  occ. eigenvalues --   -0.52437  -0.52102  -0.51583  -0.51198  -0.50654
  Beta  occ. eigenvalues --   -0.50147  -0.49720  -0.49198  -0.49012  -0.48186
  Beta  occ. eigenvalues --   -0.47609  -0.47524  -0.47461  -0.47335  -0.47221
  Beta  occ. eigenvalues --   -0.47131  -0.46842  -0.46405  -0.45999  -0.45402
  Beta  occ. eigenvalues --   -0.45279  -0.44970  -0.44849  -0.44311  -0.43921
  Beta  occ. eigenvalues --   -0.43822  -0.43664  -0.43239  -0.42106  -0.41608
  Beta  occ. eigenvalues --   -0.41075  -0.40129  -0.39146  -0.38874  -0.38446
  Beta  occ. eigenvalues --   -0.38272  -0.37704  -0.37404  -0.36465  -0.36087
  Beta  occ. eigenvalues --   -0.35754  -0.35611  -0.35491  -0.34976  -0.34546
  Beta  occ. eigenvalues --   -0.34023  -0.33622  -0.30331  -0.25009
  Beta virt. eigenvalues --   -0.21808  -0.20859  -0.19186  -0.18571  -0.18460
  Beta virt. eigenvalues --   -0.18158  -0.17824  -0.17320  -0.17008  -0.16959
  Beta virt. eigenvalues --   -0.15701  -0.14703  -0.12053  -0.10803  -0.10083
  Beta virt. eigenvalues --   -0.09924  -0.08843  -0.08695  -0.08196  -0.07976
  Beta virt. eigenvalues --   -0.07653  -0.07517  -0.07260  -0.06944  -0.06287
  Beta virt. eigenvalues --   -0.05939  -0.05881  -0.05803  -0.05630  -0.05391
  Beta virt. eigenvalues --   -0.05308  -0.04558  -0.04367  -0.03901  -0.03742
  Beta virt. eigenvalues --   -0.03720  -0.03316  -0.02866  -0.02810  -0.02643
  Beta virt. eigenvalues --   -0.02520  -0.02381  -0.02207  -0.01927  -0.01582
  Beta virt. eigenvalues --   -0.01333  -0.01193  -0.00878  -0.00795  -0.00598
  Beta virt. eigenvalues --   -0.00450  -0.00302  -0.00060   0.00098   0.00243
  Beta virt. eigenvalues --    0.00517   0.00782   0.01023   0.01057   0.01742
  Beta virt. eigenvalues --    0.01968   0.02200   0.02584   0.02734   0.02965
  Beta virt. eigenvalues --    0.03256   0.03434   0.03553   0.03667   0.03802
  Beta virt. eigenvalues --    0.04016   0.04131   0.04332   0.04441   0.04888
  Beta virt. eigenvalues --    0.05045   0.05327   0.05372   0.05603   0.05713
  Beta virt. eigenvalues --    0.05948   0.06165   0.06251   0.06447   0.06586
  Beta virt. eigenvalues --    0.06685   0.06904   0.07005   0.07083   0.07339
  Beta virt. eigenvalues --    0.07477   0.07859   0.07899   0.08030   0.08183
  Beta virt. eigenvalues --    0.08356   0.08534   0.08574   0.08793   0.09080
  Beta virt. eigenvalues --    0.09288   0.09443   0.09565   0.09773   0.10058
  Beta virt. eigenvalues --    0.10322   0.10433   0.10550   0.10742   0.10803
  Beta virt. eigenvalues --    0.10886   0.11230   0.11319   0.11544   0.11780
  Beta virt. eigenvalues --    0.12005   0.12230   0.12417   0.12436   0.12577
  Beta virt. eigenvalues --    0.12826   0.12939   0.13077   0.13313   0.13448
  Beta virt. eigenvalues --    0.13576   0.13660   0.13757   0.14200   0.14403
  Beta virt. eigenvalues --    0.14464   0.14719   0.14952   0.15019   0.15362
  Beta virt. eigenvalues --    0.15509   0.15633   0.15717   0.16113   0.16146
  Beta virt. eigenvalues --    0.16333   0.16493   0.16773   0.16927   0.16970
  Beta virt. eigenvalues --    0.17197   0.17453   0.17575   0.17693   0.17713
  Beta virt. eigenvalues --    0.17919   0.18111   0.18336   0.18560   0.18611
  Beta virt. eigenvalues --    0.18776   0.18986   0.19332   0.19448   0.19833
  Beta virt. eigenvalues --    0.19922   0.20128   0.20459   0.20566   0.20877
  Beta virt. eigenvalues --    0.21096   0.21228   0.21609   0.21886   0.22101
  Beta virt. eigenvalues --    0.22344   0.22477   0.22693   0.22768   0.23701
  Beta virt. eigenvalues --    0.23930   0.24168   0.24303   0.24378   0.24605
  Beta virt. eigenvalues --    0.24760   0.25185   0.25304   0.25800   0.25854
  Beta virt. eigenvalues --    0.26041   0.26245   0.26530   0.27260   0.27540
  Beta virt. eigenvalues --    0.27578   0.27757   0.28108   0.28309   0.28598
  Beta virt. eigenvalues --    0.28907   0.29352   0.29664   0.29948   0.30179
  Beta virt. eigenvalues --    0.30513   0.30975   0.31300   0.31355   0.31546
  Beta virt. eigenvalues --    0.31794   0.31917   0.32133   0.32836   0.33131
  Beta virt. eigenvalues --    0.33244   0.33827   0.34454   0.34882   0.34950
  Beta virt. eigenvalues --    0.35360   0.35507   0.35752   0.36346   0.37012
  Beta virt. eigenvalues --    0.37502   0.37584   0.37863   0.38414   0.38804
  Beta virt. eigenvalues --    0.39012   0.39233   0.39376   0.39546   0.40802
  Beta virt. eigenvalues --    0.41262   0.41390   0.41669   0.42273   0.42582
  Beta virt. eigenvalues --    0.42674   0.43493   0.43880   0.44242   0.45180
  Beta virt. eigenvalues --    0.45220   0.46375   0.50061   0.50549   0.52338
  Beta virt. eigenvalues --    0.52764   0.53361   0.53932   0.54223   0.54970
  Beta virt. eigenvalues --    0.55517   0.56702   0.57323   0.57577   0.57866
  Beta virt. eigenvalues --    0.58238   0.58355   0.58650   0.58777   0.59271
  Beta virt. eigenvalues --    0.59502   0.59879   0.60479   0.60601   0.60814
  Beta virt. eigenvalues --    0.60914   0.61346   0.61789   0.62240   0.62608
  Beta virt. eigenvalues --    0.63145   0.63374   0.63610   0.63642   0.64285
  Beta virt. eigenvalues --    0.64747   0.65290   0.65428   0.65676   0.66311
  Beta virt. eigenvalues --    0.66764   0.67103   0.67555   0.68009   0.68515
  Beta virt. eigenvalues --    0.69002   0.70082   0.70097   0.70753   0.71065
  Beta virt. eigenvalues --    0.71752   0.72005   0.72347   0.72674   0.73080
  Beta virt. eigenvalues --    0.73658   0.73783   0.74143   0.74677   0.75067
  Beta virt. eigenvalues --    0.75224   0.75478   0.75689   0.76648   0.77055
  Beta virt. eigenvalues --    0.77247   0.78045   0.78325   0.78814   0.79020
  Beta virt. eigenvalues --    0.79176   0.79575   0.79885   0.80219   0.80504
  Beta virt. eigenvalues --    0.80879   0.80931   0.81384   0.81969   0.82270
  Beta virt. eigenvalues --    0.82811   0.83166   0.83977   0.84562   0.85631
  Beta virt. eigenvalues --    0.85905   0.86198   0.86970   0.87275   0.87862
  Beta virt. eigenvalues --    0.88347   0.89312   0.89555   0.90249   0.90581
  Beta virt. eigenvalues --    0.91288   0.92266   0.92818   0.93141   0.94152
  Beta virt. eigenvalues --    0.94495   0.95471   0.95803   0.96488   0.97175
  Beta virt. eigenvalues --    0.97358   0.97631   0.98274   0.98393   0.98485
  Beta virt. eigenvalues --    0.99441   1.00482   1.01265   1.02034   1.02698
  Beta virt. eigenvalues --    1.03183   1.03437   1.04314   1.04957   1.05496
  Beta virt. eigenvalues --    1.05860   1.06183   1.06711   1.07097   1.07697
  Beta virt. eigenvalues --    1.07874   1.08459   1.08886   1.09407   1.09888
  Beta virt. eigenvalues --    1.10343   1.10426   1.10812   1.11274   1.12121
  Beta virt. eigenvalues --    1.12407   1.13229   1.13892   1.14618   1.14941
  Beta virt. eigenvalues --    1.15729   1.16243   1.16513   1.17184   1.17479
  Beta virt. eigenvalues --    1.18354   1.18726   1.19057   1.19674   1.20298
  Beta virt. eigenvalues --    1.20863   1.21160   1.21559   1.21739   1.22188
  Beta virt. eigenvalues --    1.22904   1.23013   1.23199   1.23325   1.23710
  Beta virt. eigenvalues --    1.24465   1.24610   1.25111   1.25526   1.25759
  Beta virt. eigenvalues --    1.26074   1.26631   1.27315   1.27859   1.27988
  Beta virt. eigenvalues --    1.28965   1.29001   1.29554   1.29851   1.30468
  Beta virt. eigenvalues --    1.31838   1.32162   1.32904   1.33401   1.33590
  Beta virt. eigenvalues --    1.34369   1.35540   1.35805   1.36616   1.37098
  Beta virt. eigenvalues --    1.38114   1.38415   1.39738   1.40222   1.40404
  Beta virt. eigenvalues --    1.41173   1.42349   1.42909   1.43692   1.44550
  Beta virt. eigenvalues --    1.44906   1.45985   1.47424   1.48395   1.48619
  Beta virt. eigenvalues --    1.49421   1.49760   1.51037   1.52512   1.52830
  Beta virt. eigenvalues --    1.54734   1.55486   1.56112   1.56458   1.58624
  Beta virt. eigenvalues --    1.59214   1.59238   1.60245   1.60814   1.62185
  Beta virt. eigenvalues --    1.62650   1.62794   1.63435   1.63763   1.64929
  Beta virt. eigenvalues --    1.65359   1.65528   1.66298   1.66473   1.67216
  Beta virt. eigenvalues --    1.67504   1.67820   1.68673   1.69084   1.69212
  Beta virt. eigenvalues --    1.70127   1.70432   1.71012   1.71600   1.72029
  Beta virt. eigenvalues --    1.72298   1.72833   1.73125   1.73757   1.74317
  Beta virt. eigenvalues --    1.74918   1.75579   1.75856   1.76410   1.76748
  Beta virt. eigenvalues --    1.77182   1.77506   1.77944   1.78535   1.79050
  Beta virt. eigenvalues --    1.79441   1.79975   1.80278   1.80433   1.81004
  Beta virt. eigenvalues --    1.81280   1.81750   1.81965   1.82253   1.82434
  Beta virt. eigenvalues --    1.82831   1.83169   1.83572   1.83852   1.84329
  Beta virt. eigenvalues --    1.84659   1.85010   1.85761   1.86354   1.86527
  Beta virt. eigenvalues --    1.86885   1.87482   1.87915   1.88318   1.88687
  Beta virt. eigenvalues --    1.89775   1.90371   1.91094   1.91708   1.92252
  Beta virt. eigenvalues --    1.92738   1.93611   1.95027   1.95114   1.96272
  Beta virt. eigenvalues --    1.97023   1.97914   1.98730   1.99806   2.00391
  Beta virt. eigenvalues --    2.01359   2.02067   2.02357   2.03621   2.04280
  Beta virt. eigenvalues --    2.04864   2.05225   2.05630   2.06143   2.07417
  Beta virt. eigenvalues --    2.07610   2.08096   2.08802   2.09344   2.09989
  Beta virt. eigenvalues --    2.10795   2.11134   2.11694   2.12268   2.12378
  Beta virt. eigenvalues --    2.12649   2.12888   2.13685   2.14046   2.15189
  Beta virt. eigenvalues --    2.16118   2.16243   2.16933   2.18282   2.18788
  Beta virt. eigenvalues --    2.18948   2.19341   2.19665   2.20428   2.20645
  Beta virt. eigenvalues --    2.21083   2.21478   2.21500   2.22310   2.22733
  Beta virt. eigenvalues --    2.22946   2.23272   2.25864   2.26819   2.26966
  Beta virt. eigenvalues --    2.28413   2.28904   2.29044   2.29626   2.30176
  Beta virt. eigenvalues --    2.31287   2.31877   2.32419   2.32731   2.33177
  Beta virt. eigenvalues --    2.33654   2.34226   2.34806   2.35059   2.35809
  Beta virt. eigenvalues --    2.36284   2.36962   2.37331   2.37552   2.37969
  Beta virt. eigenvalues --    2.38708   2.39126   2.39833   2.40028   2.40369
  Beta virt. eigenvalues --    2.41061   2.42188   2.42818   2.43226   2.43570
  Beta virt. eigenvalues --    2.44624   2.44934   2.45314   2.45685   2.47145
  Beta virt. eigenvalues --    2.47766   2.48840   2.49406   2.49811   2.49862
  Beta virt. eigenvalues --    2.51591   2.51754   2.52226   2.52307   2.53362
  Beta virt. eigenvalues --    2.53718   2.54474   2.55445   2.55795   2.56010
  Beta virt. eigenvalues --    2.56895   2.57509   2.59379   2.59853   2.60489
  Beta virt. eigenvalues --    2.60976   2.61758   2.62045   2.63460   2.64470
  Beta virt. eigenvalues --    2.64738   2.65495   2.65630   2.66482   2.66634
  Beta virt. eigenvalues --    2.67723   2.67798   2.68613   2.70199   2.71581
  Beta virt. eigenvalues --    2.73261   2.74565   2.76828   2.77156   2.77944
  Beta virt. eigenvalues --    2.79073   2.79647   2.81157   2.82331   2.82950
  Beta virt. eigenvalues --    2.84643   2.84956   2.87625   2.88249   2.88669
  Beta virt. eigenvalues --    2.90097   2.90870   2.93604   2.93784   3.01968
  Beta virt. eigenvalues --    3.03351   3.04139   3.05157   3.06240   3.07529
  Beta virt. eigenvalues --    3.07997   3.08320   3.08595   3.08851   3.09060
  Beta virt. eigenvalues --    3.09926   3.10062   3.10357   3.10483   3.10659
  Beta virt. eigenvalues --    3.11560   3.12085   3.13130   3.16262   3.17144
  Beta virt. eigenvalues --    3.17340   3.17734   3.23940   3.26132   3.31605
  Beta virt. eigenvalues --    3.31785   3.31832   3.31960   3.32455   3.32659
  Beta virt. eigenvalues --    3.33517   3.34582   3.59936   3.65245   3.65362
  Beta virt. eigenvalues --    3.65763   3.66396   3.67272  30.94592  31.01743
  Beta virt. eigenvalues --   31.05587  40.21049
          Condensed to atoms (all electrons):
          Atomic-Atomic Spin Densities.
 Mulliken charges and spin densities:
               1          2
     1  Mo   1.366322   0.735574
     2  O   -0.914364   0.162082
     3  N    0.213452  -0.022337
     4  N    0.185741  -0.055187
     5  N    0.107037  -0.031490
     6  N    0.252145  -0.025446
     7  C    0.371075   0.035482
     8  N   -0.014323  -0.035421
     9  C   -1.238029   0.006049
    10  C   -0.035155   0.018790
    11  C    0.176154   0.026496
    12  C   -0.255370  -0.006781
    13  H    0.170908   0.001303
    14  C   -0.072756  -0.025386
    15  H    0.146687   0.000522
    16  C    0.122901  -0.016002
    17  C   -0.022655   0.011264
    18  H    0.194906   0.000029
    19  H    0.185656  -0.000064
    20  H    0.195487  -0.000088
    21  C    0.112334  -0.001067
    22  H    0.150264  -0.000144
    23  C   -0.099174   0.002687
    24  H    0.188177   0.000006
    25  H    0.188242   0.000058
    26  H    0.198100  -0.000088
    27  C   -0.201531   0.005550
    28  H    0.145185  -0.000048
    29  C    0.114955  -0.015285
    30  H    0.152108   0.000612
    31  C   -0.019414  -0.020706
    32  H    0.152872   0.000651
    33  C    0.229587   0.024515
    34  C    0.276247   0.008328
    35  H    0.161184  -0.000752
    36  C   -1.247212   0.015039
    37  C    0.412021   0.023020
    38  C   -0.516154  -0.009303
    39  H    0.171243   0.000409
    40  C    0.171132  -0.003522
    41  H    0.150153   0.000182
    42  C    0.125437   0.007306
    43  H    0.183459   0.000805
    44  C   -0.728060   0.063297
    45  C   -0.568717  -0.007643
    46  H    0.167548   0.000320
    47  C   -0.169173   0.011019
    48  H    0.168150   0.001106
    49  C   -0.436970  -0.000375
    50  H    0.170670   0.000048
    51  C    0.225505  -0.008806
    52  H    0.161492   0.000141
    53  C   -0.450638   0.004968
    54  H    0.169843   0.000005
    55  C   -0.545558   0.021034
    56  H    0.172810  -0.000895
    57  C   -0.451293   0.074315
    58  H    0.169318  -0.003456
    59  C    0.217422   0.054788
    60  H    0.185279  -0.003456
    61  H    0.485574  -0.002435
    62  H   -0.081924  -0.004976
    63  H    0.170480  -0.003120
    64  O   -0.285569  -0.004723
    65  C    0.217651  -0.002311
    66  O   -0.298874  -0.006486
 Sum of Mulliken charges =   1.00000   1.00000
 Mulliken charges and spin densities with hydrogens summed into heavy atoms:
               1          2
     1  Mo   1.366322   0.735574
     2  O   -0.428790   0.159647
     3  N    0.213452  -0.022337
     4  N    0.185741  -0.055187
     5  N    0.107037  -0.031490
     6  N    0.252145  -0.025446
     7  C    0.371075   0.035482
     8  N   -0.014323  -0.035421
     9  C   -1.238029   0.006049
    10  C   -0.035155   0.018790
    11  C    0.176154   0.026496
    12  C   -0.084462  -0.005478
    14  C    0.073931  -0.024864
    16  C    0.122901  -0.016002
    17  C    0.553394   0.011142
    21  C    0.262597  -0.001211
    23  C    0.475345   0.002662
    27  C   -0.056346   0.005501
    29  C    0.267063  -0.014672
    31  C    0.133457  -0.020055
    33  C    0.229587   0.024515
    34  C    0.437430   0.007576
    36  C   -1.247212   0.015039
    37  C    0.412021   0.023020
    38  C   -0.344911  -0.008895
    40  C    0.321284  -0.003341
    42  C    0.308896   0.008111
    44  C   -0.557581   0.060176
    45  C   -0.401169  -0.007323
    47  C   -0.001023   0.012125
    49  C   -0.266300  -0.000327
    51  C    0.386998  -0.008665
    53  C   -0.280795   0.004973
    55  C   -0.372748   0.020139
    57  C   -0.281974   0.070859
    59  C    0.402701   0.051332
    64  O   -0.285569  -0.004723
    65  C    0.135728  -0.007286
    66  O   -0.298874  -0.006486
 APT charges:
               1
     1  Mo  -0.078667
     2  O   -0.175494
     3  N    0.093433
     4  N    0.041481
     5  N    0.099199
     6  N    0.113734
     7  C   -1.040489
     8  N   -0.283151
     9  C    0.011430
    10  C   -1.115425
    11  C   -0.785017
    12  C   -0.376638
    13  H    0.987446
    14  C   -0.347026
    15  H    0.746929
    16  C   -1.519102
    17  C   -2.130202
    18  H    0.513686
    19  H    0.519023
    20  H    0.647428
    21  C   -0.207256
    22  H    0.785905
    23  C   -2.147642
    24  H    0.525341
    25  H    0.510303
    26  H    0.641440
    27  C   -0.298326
    28  H    0.759166
    29  C   -0.255629
    30  H    0.794002
    31  C   -0.542546
    32  H    0.796222
    33  C   -0.716035
    34  C   -0.836785
    35  H    0.346641
    36  C    0.008237
    37  C   -0.440161
    38  C   -0.188296
    39  H    1.172388
    40  C   -0.219244
    41  H    0.789254
    42  C   -0.807651
    43  H    0.358628
    44  C   -0.168145
    45  C   -0.350099
    46  H    1.173390
    47  C   -0.331745
    48  H    0.974244
    49  C   -0.524425
    50  H    0.946280
    51  C   -0.921111
    52  H    0.310747
    53  C   -0.322773
    54  H    0.941768
    55  C   -0.182436
    56  H    1.175358
    57  C   -0.368870
    58  H    1.161171
    59  C   -0.698299
    60  H    0.387372
    61  H    0.530290
    62  H   -0.104367
    63  H    1.041510
    64  O    0.257946
    65  C   -0.515594
    66  O   -0.162741
 Sum of APT charges =   1.00000
 APT charges with hydrogens summed into heavy atoms:
               1
     1  Mo  -0.078667
     2  O    0.354796
     3  N    0.093433
     4  N    0.041481
     5  N    0.099199
     6  N    0.113734
     7  C   -1.040489
     8  N   -0.283151
     9  C    0.011430
    10  C   -1.115425
    11  C   -0.785017
    12  C    0.610807
    14  C    0.399903
    16  C   -1.519102
    17  C   -0.450065
    21  C    0.578649
    23  C   -0.470558
    27  C    0.460840
    29  C    0.538373
    31  C    0.253676
    33  C   -0.716035
    34  C   -0.490144
    36  C    0.008237
    37  C   -0.440161
    38  C    0.984092
    40  C    0.570009
    42  C   -0.449023
    44  C    0.873365
    45  C    0.823291
    47  C    0.642498
    49  C    0.421855
    51  C   -0.610364
    53  C    0.618995
    55  C    0.992922
    57  C    0.792301
    59  C   -0.310926
    64  O    0.257946
    65  C   -0.619962
    66  O   -0.162741
 Electronic spatial extent (au):  <R**2>=          14590.7372
 Charge=              1.0000 electrons
 Dipole moment (field-independent basis, Debye):
    X=             -1.6833    Y=              0.6184    Z=              9.0088  Tot=              9.1856
 Quadrupole moment (field-independent basis, Debye-Ang):
   XX=           -167.2970   YY=           -184.2681   ZZ=           -231.8336
   XY=              6.3764   XZ=              9.8440   YZ=             -7.3348
 Traceless Quadrupole moment (field-independent basis, Debye-Ang):
   XX=             27.1692   YY=             10.1982   ZZ=            -37.3674
   XY=              6.3764   XZ=              9.8440   YZ=             -7.3348
 Octapole moment (field-independent basis, Debye-Ang**2):
  XXX=            -71.9607  YYY=             58.5705  ZZZ=            317.3710  XYY=            -32.4648
  XXY=             39.5685  XXZ=            126.6617  XZZ=            -65.9207  YZZ=             60.7598
  YYZ=            -43.2035  XYZ=            -42.7428
 Hexadecapole moment (field-independent basis, Debye-Ang**3):
 XXXX=          -7556.2306 YYYY=          -4992.7378 ZZZZ=          -5382.0848 XXXY=             41.7043
 XXXZ=            303.4233 YYYX=            -52.3969 YYYZ=           -239.9186 ZZZX=            427.1921
 ZZZY=           -309.0745 XXYY=          -1631.8282 XXZZ=          -2282.1178 YYZZ=          -1808.6409
 XXYZ=           -139.2184 YYXZ=            143.1490 ZZXY=            196.5216
 N-N= 4.926948318368D+03 E-N=-1.381831074045D+04  KE= 1.668842077187D+03
  Exact polarizability:   0.000   0.000   0.000   0.000   0.000   0.000
 Approx polarizability:1390.718 111.0381122.428  11.589  -8.9571312.731
                          Isotropic Fermi Contact Couplings
        Atom                 a.u.       MegaHertz       Gauss      10(-4) cm-1
     1  Mo(95)            -0.00000       0.00042       0.00015       0.00014
     2  O(17)              0.02495     -15.12439      -5.39676      -5.04495
     3  N(14)             -0.00373      -1.20579      -0.43026      -0.40221
     4  N(14)             -0.01039      -3.35744      -1.19802      -1.11992
     5  N(14)             -0.00505      -1.63182      -0.58227      -0.54432
     6  N(14)             -0.00439      -1.41737      -0.50575      -0.47278
     7  C(13)              0.00565       6.34855       2.26532       2.11765
     8  N(14)             -0.01316      -4.25154      -1.51706      -1.41816
     9  C(13)             -0.00207      -2.32682      -0.83027      -0.77614
    10  C(13)              0.00420       4.72067       1.68445       1.57465
    11  C(13)              0.00986      11.08256       3.95453       3.69674
    12  C(13)             -0.00310      -3.48134      -1.24223      -1.16125
    13  H(1)               0.00038       1.71608       0.61234       0.57242
    14  C(13)             -0.00372      -4.18114      -1.49194      -1.39468
    15  H(1)               0.00012       0.53309       0.19022       0.17782
    16  C(13)              0.00022       0.24324       0.08679       0.08114
    17  C(13)              0.00008       0.09512       0.03394       0.03173
    18  H(1)              -0.00001      -0.02597      -0.00927      -0.00866
    19  H(1)              -0.00002      -0.10853      -0.03873      -0.03620
    20  H(1)              -0.00004      -0.15804      -0.05639      -0.05272
    21  C(13)              0.00074       0.83019       0.29623       0.27692
    22  H(1)              -0.00003      -0.14397      -0.05137      -0.04802
    23  C(13)              0.00005       0.05654       0.02017       0.01886
    24  H(1)              -0.00004      -0.19094      -0.06813      -0.06369
    25  H(1)              -0.00002      -0.10900      -0.03889      -0.03636
    26  H(1)              -0.00000      -0.01994      -0.00711      -0.00665
    27  C(13)              0.00008       0.09300       0.03318       0.03102
    28  H(1)               0.00004       0.17553       0.06263       0.05855
    29  C(13)             -0.00234      -2.63239      -0.93930      -0.87807
    30  H(1)               0.00014       0.64531       0.23026       0.21525
    31  C(13)             -0.00312      -3.50474      -1.25058      -1.16905
    32  H(1)               0.00021       0.92019       0.32835       0.30694
    33  C(13)              0.01114      12.52798       4.47029       4.17888
    34  C(13)              0.00149       1.68016       0.59952       0.56044
    35  H(1)              -0.00023      -1.02379      -0.36532      -0.34150
    36  C(13)             -0.00154      -1.72780      -0.61652      -0.57633
    37  C(13)              0.00468       5.25968       1.87678       1.75444
    38  C(13)             -0.00052      -0.58285      -0.20798      -0.19442
    39  H(1)               0.00012       0.52418       0.18704       0.17485
    40  C(13)             -0.00020      -0.22142      -0.07901      -0.07386
    41  H(1)               0.00003       0.12659       0.04517       0.04223
    42  C(13)              0.00095       1.06737       0.38086       0.35604
    43  H(1)              -0.00009      -0.39993      -0.14270      -0.13340
    44  C(13)              0.00682       7.66812       2.73618       2.55781
    45  C(13)             -0.00069      -0.77269      -0.27572      -0.25774
    46  H(1)               0.00008       0.37323       0.13318       0.12450
    47  C(13)             -0.00009      -0.10227      -0.03649      -0.03411
    48  H(1)               0.00043       1.90211       0.67872       0.63447
    49  C(13)             -0.00108      -1.21737      -0.43439      -0.40607
    50  H(1)               0.00001       0.02822       0.01007       0.00941
    51  C(13)             -0.00047      -0.53282      -0.19012      -0.17773
    52  H(1)               0.00002       0.09798       0.03496       0.03268
    53  C(13)              0.00002       0.02588       0.00924       0.00863
    54  H(1)               0.00001       0.05608       0.02001       0.01870
    55  C(13)              0.00242       2.72385       0.97194       0.90858
    56  H(1)              -0.00025      -1.12435      -0.40119      -0.37504
    57  C(13)              0.00757       8.50561       3.03501       2.83716
    58  H(1)              -0.00098      -4.39130      -1.56692      -1.46478
    59  C(13)              0.00761       8.55195       3.05155       2.85262
    60  H(1)              -0.00076      -3.38675      -1.20848      -1.12970
    61  H(1)              -0.00089      -3.95745      -1.41212      -1.32006
    62  H(1)              -0.00152      -6.78006      -2.41929      -2.26158
    63  H(1)              -0.00089      -3.96871      -1.41613      -1.32382
    64  O(17)             -0.00059       0.35623       0.12711       0.11883
    65  C(13)              0.00091       1.02222       0.36475       0.34098
    66  O(17)             -0.00199       1.20807       0.43107       0.40297
 --------------------------------------------------------
       Center         ----  Spin Dipole Couplings  ----
                      3XX-RR        3YY-RR        3ZZ-RR
 --------------------------------------------------------
     1   Atom       -0.013546     -0.028701      0.042247
     2   Atom        0.243227      0.081328     -0.324554
     3   Atom       -0.024044      0.037279     -0.013235
     4   Atom       -0.006210      0.003683      0.002527
     5   Atom       -0.002190      0.009258     -0.007068
     6   Atom       -0.000436      0.004226     -0.003790
     7   Atom        0.016061      0.000865     -0.016926
     8   Atom       -0.005250      0.014429     -0.009179
     9   Atom        0.001575     -0.001988      0.000413
    10   Atom        0.000463      0.003408     -0.003871
    11   Atom       -0.004701      0.002580      0.002121
    12   Atom       -0.000084     -0.001870      0.001954
    13   Atom       -0.000078      0.000537     -0.000459
    14   Atom       -0.001183      0.000018      0.001165
    15   Atom        0.000587     -0.000139     -0.000447
    16   Atom        0.005414     -0.000509     -0.004905
    17   Atom        0.001150     -0.000886     -0.000264
    18   Atom        0.000791     -0.001001      0.000210
    19   Atom        0.000755     -0.000868      0.000112
    20   Atom        0.001351     -0.000896     -0.000455
    21   Atom        0.000763     -0.000191     -0.000572
    22   Atom        0.000951     -0.000492     -0.000459
    23   Atom        0.001187     -0.001320      0.000133
    24   Atom        0.000656     -0.000959      0.000303
    25   Atom        0.000488     -0.001014      0.000526
    26   Atom        0.001298     -0.001063     -0.000235
    27   Atom        0.001250     -0.000508     -0.000742
    28   Atom        0.001017     -0.000438     -0.000579
    29   Atom        0.003984     -0.012761      0.008777
    30   Atom       -0.000186     -0.001450      0.001636
    31   Atom        0.003930     -0.011928      0.007999
    32   Atom       -0.000252     -0.001454      0.001707
    33   Atom       -0.022098      0.033441     -0.011343
    34   Atom       -0.005183     -0.003201      0.008384
    35   Atom       -0.000921      0.004278     -0.003357
    36   Atom        0.002499     -0.003039      0.000540
    37   Atom       -0.014179      0.030483     -0.016304
    38   Atom        0.001406      0.002049     -0.003454
    39   Atom        0.000145      0.000225     -0.000370
    40   Atom        0.002038      0.001685     -0.003723
    41   Atom        0.000969     -0.000257     -0.000713
    42   Atom       -0.002609      0.008483     -0.005874
    43   Atom       -0.001105      0.003304     -0.002199
    44   Atom       -0.029132      0.055080     -0.025948
    45   Atom       -0.001057     -0.001345      0.002402
    46   Atom        0.000198     -0.000006     -0.000193
    47   Atom        0.000660      0.000615     -0.001274
    48   Atom        0.000051      0.000625     -0.000676
    49   Atom        0.000842      0.001751     -0.002593
    50   Atom       -0.000136      0.001009     -0.000872
    51   Atom       -0.000911      0.004864     -0.003954
    52   Atom       -0.003899      0.007104     -0.003205
    53   Atom       -0.000075      0.001075     -0.001000
    54   Atom       -0.000259      0.001041     -0.000782
    55   Atom       -0.002104     -0.006954      0.009058
    56   Atom        0.000545      0.000243     -0.000788
    57   Atom        0.015153     -0.000743     -0.014410
    58   Atom        0.001796      0.002131     -0.003927
    59   Atom        0.001846      0.023338     -0.025184
    60   Atom       -0.002017      0.001370      0.000646
    61   Atom       -0.007455     -0.009417      0.016871
    62   Atom        0.000757     -0.002233      0.001476
    63   Atom       -0.004286     -0.000471      0.004757
    64   Atom        0.010056      0.008249     -0.018305
    65   Atom        0.000666     -0.000443     -0.000223
    66   Atom        0.008461      0.011007     -0.019469
 --------------------------------------------------------
                        XY            XZ            YZ
 --------------------------------------------------------
     1   Atom        0.101249      0.046000     -0.057482
     2   Atom        0.485469      0.062931      0.048430
     3   Atom        0.000712     -0.009282     -0.011997
     4   Atom       -0.001356      0.006227     -0.003070
     5   Atom        0.011305      0.006784     -0.005896
     6   Atom       -0.004953     -0.004855      0.000211
     7   Atom       -0.025081      0.013224     -0.015075
     8   Atom       -0.012223      0.000531     -0.005592
     9   Atom       -0.000063     -0.003662      0.000556
    10   Atom       -0.005069     -0.004042     -0.005190
    11   Atom        0.001311     -0.002288     -0.015703
    12   Atom        0.013260     -0.006390      0.006274
    13   Atom        0.001757     -0.000060      0.000594
    14   Atom        0.009647     -0.005657      0.005233
    15   Atom        0.001523     -0.000805      0.000032
    16   Atom        0.002613      0.009752     -0.006620
    17   Atom        0.000119      0.001622     -0.000049
    18   Atom       -0.000279      0.001324     -0.000212
    19   Atom        0.000536      0.001234      0.000453
    20   Atom        0.000104      0.000951      0.000081
    21   Atom       -0.001563     -0.000444      0.001290
    22   Atom       -0.000890     -0.000788      0.000471
    23   Atom       -0.000458     -0.001488     -0.000134
    24   Atom       -0.000373     -0.001256      0.000448
    25   Atom        0.000456     -0.001442     -0.000305
    26   Atom       -0.000033     -0.001227      0.000240
    27   Atom        0.001026      0.000277      0.001056
    28   Atom        0.000928      0.000669      0.000378
    29   Atom        0.001598     -0.000530      0.004069
    30   Atom        0.000249      0.000607      0.000302
    31   Atom        0.002450      0.000274     -0.000225
    32   Atom        0.000066     -0.000523      0.000229
    33   Atom       -0.007739      0.006124     -0.017483
    34   Atom       -0.002543     -0.006056     -0.003726
    35   Atom       -0.001955      0.000100      0.001991
    36   Atom       -0.000052      0.004426     -0.000292
    37   Atom       -0.021834     -0.002965      0.000970
    38   Atom       -0.003010     -0.003639     -0.003102
    39   Atom       -0.000513     -0.000290     -0.000029
    40   Atom       -0.003779      0.003288      0.001909
    41   Atom       -0.000920      0.000757     -0.000160
    42   Atom       -0.000771      0.006837     -0.014101
    43   Atom        0.006955     -0.000735     -0.003567
    44   Atom       -0.008742      0.000251     -0.001628
    45   Atom        0.005857      0.002611     -0.002312
    46   Atom        0.000671      0.000190     -0.000113
    47   Atom        0.002489     -0.000275     -0.000995
    48   Atom        0.001261     -0.000368     -0.000555
    49   Atom       -0.002015      0.001734      0.001182
    50   Atom       -0.001098      0.000015      0.000249
    51   Atom       -0.005101     -0.002630     -0.000954
    52   Atom       -0.003069      0.000478     -0.000268
    53   Atom       -0.001520      0.000181      0.000040
    54   Atom       -0.001073      0.000061     -0.000029
    55   Atom        0.002320     -0.011185     -0.006704
    56   Atom       -0.001822     -0.000082     -0.000693
    57   Atom       -0.035670      0.029858     -0.024750
    58   Atom        0.003281      0.000617     -0.001873
    59   Atom       -0.033271      0.013204     -0.013458
    60   Atom        0.001675     -0.000375      0.003117
    61   Atom        0.000118     -0.011202      0.009666
    62   Atom       -0.007526     -0.008913      0.006806
    63   Atom       -0.000495      0.000109      0.000293
    64   Atom        0.001629      0.010238     -0.003575
    65   Atom       -0.000649     -0.002859      0.002076
    66   Atom        0.002349      0.004839     -0.005334
 --------------------------------------------------------


 ---------------------------------------------------------------------------------
              Anisotropic Spin Dipole Couplings in Principal Axis System
 ---------------------------------------------------------------------------------

       Atom             a.u.   MegaHertz   Gauss  10(-4) cm-1        Axes

              Baa    -0.1506     5.261     1.877     1.755 -0.6296  0.6906  0.3560
     1 Mo(95) Bbb     0.0681    -2.380    -0.849    -0.794  0.5038  0.0141  0.8637
              Bcc     0.0825    -2.881    -1.028    -0.961  0.5915  0.7231 -0.3568
 
              Baa    -0.3342    24.180     8.628     8.066 -0.4700  0.4615  0.7524
     2 O(17)  Bbb    -0.3267    23.638     8.435     7.885  0.4475 -0.6101  0.6538
              Bcc     0.6608   -47.817   -17.062   -15.950  0.7608  0.6440  0.0802
 
              Baa    -0.0298    -1.151    -0.411    -0.384  0.8419  0.0863  0.5328
     3 N(14)  Bbb    -0.0103    -0.396    -0.141    -0.132 -0.5379  0.2138  0.8154
              Bcc     0.0401     1.547     0.552     0.516  0.0436  0.9731 -0.2264
 
              Baa    -0.0095    -0.365    -0.130    -0.122  0.8853 -0.0172 -0.4646
     4 N(14)  Bbb     0.0012     0.047     0.017     0.016  0.2879  0.8049  0.5188
[...]
    23   Atom       -0.000340     -0.001622     -0.000107
    24   Atom       -0.000352     -0.001299      0.000425
    25   Atom        0.000430     -0.001468     -0.000325
    26   Atom       -0.000016     -0.001300      0.000189
    27   Atom        0.000565      0.000067      0.001619
    28   Atom        0.000911      0.000733      0.000451
    29   Atom        0.001275     -0.000079      0.003746
    30   Atom        0.000228      0.000723      0.000304
    31   Atom        0.002006     -0.000146      0.000144
    32   Atom        0.000041     -0.000585      0.000220
    33   Atom       -0.006104      0.006725     -0.015721
    34   Atom       -0.003460     -0.005568     -0.001866
    35   Atom       -0.002204      0.000070      0.002231
    36   Atom        0.000057      0.005151     -0.000271
    37   Atom       -0.019720     -0.003191      0.000443
    38   Atom       -0.002674     -0.003506     -0.002634
    39   Atom       -0.000542     -0.000310      0.000013
    40   Atom       -0.003372      0.003013      0.001258
    41   Atom       -0.000897      0.000802     -0.000223
    42   Atom        0.002724      0.006694     -0.015482
    43   Atom        0.006956     -0.001224     -0.004418
    44   Atom       -0.006000      0.000130     -0.000530
    45   Atom        0.007990      0.005193     -0.004754
    46   Atom        0.000494      0.000279     -0.000250
    47   Atom        0.002250     -0.000672     -0.000733
    48   Atom        0.001281     -0.000416     -0.000578
    49   Atom       -0.002026      0.001844      0.000933
    50   Atom       -0.001132      0.000017      0.000212
    51   Atom       -0.005376     -0.002618     -0.000779
    52   Atom       -0.003113      0.000502     -0.000123
    53   Atom       -0.001649     -0.000013      0.000101
    54   Atom       -0.001126      0.000035      0.000010
    55   Atom        0.001224     -0.008746     -0.004955
    56   Atom       -0.001625      0.000002     -0.000585
    57   Atom       -0.034291      0.027914     -0.023330
    58   Atom        0.003184      0.000564     -0.001763
    59   Atom       -0.030820      0.013953     -0.014488
    60   Atom        0.001792     -0.000075      0.003763
    61   Atom        0.000828     -0.012542      0.011096
    62   Atom       -0.008910     -0.011689      0.010888
    63   Atom       -0.000356      0.000097      0.000239
    64   Atom        0.004103      0.017954     -0.009426
    65   Atom       -0.000404     -0.003115      0.002549
    66   Atom        0.000495      0.008304     -0.004188
 --------------------------------------------------------


 ---------------------------------------------------------------------------------
              Anisotropic Spin Dipole Couplings in Principal Axis System
 ---------------------------------------------------------------------------------

       Atom             a.u.   MegaHertz   Gauss  10(-4) cm-1        Axes

              Baa    -0.1648     5.757     2.054     1.920 -0.5984  0.6898  0.4076
     1 Mo(95) Bbb     0.0763    -2.665    -0.951    -0.889  0.3071 -0.2723  0.9119
              Bcc     0.0885    -3.091    -1.103    -1.031  0.7400  0.6708 -0.0489
 
              Baa    -0.3141    22.725     8.109     7.580 -0.4999  0.6634 -0.5568
     2 O(17)  Bbb    -0.2996    21.676     7.734     7.230 -0.4052  0.3890  0.8273
              Bcc     0.6136   -44.401   -15.843   -14.811  0.7655  0.6391  0.0743
 
              Baa    -0.0268    -1.033    -0.369    -0.345  0.8356 -0.0488  0.5472
     3 N(14)  Bbb    -0.0043    -0.164    -0.059    -0.055 -0.5231  0.2340  0.8195
              Bcc     0.0310     1.197     0.427     0.399  0.1680  0.9710 -0.1700
 
              Baa    -0.0093    -0.357    -0.128    -0.119  0.8042  0.0851 -0.5882
     4 N(14)  Bbb     0.0040     0.152     0.054     0.051 -0.0408  0.9953  0.0883
              Bcc     0.0053     0.205     0.073     0.068  0.5929 -0.0470  0.8039
 
              Baa    -0.0178    -0.685    -0.244    -0.228 -0.5633  0.5365  0.6284
     5 N(14)  Bbb     0.0025     0.095     0.034     0.032  0.5963 -0.2625  0.7586
              Bcc     0.0153     0.590     0.210     0.197  0.5720  0.8020 -0.1721
 
              Baa    -0.0080    -0.307    -0.110    -0.102  0.6214  0.2497  0.7426
     6 N(14)  Bbb     0.0001     0.003     0.001     0.001 -0.4904 -0.6153  0.6172
              Bcc     0.0079     0.304     0.109     0.102 -0.6111  0.7477  0.2599
 
              Baa    -0.0265    -3.556    -1.269    -1.186  0.0299  0.5352  0.8442
     7 C(13)  Bbb    -0.0153    -2.050    -0.732    -0.684  0.6567  0.6263 -0.4202
              Bcc     0.0418     5.606     2.000     1.870  0.7536 -0.5669  0.3327
 
              Baa    -0.0097    -0.372    -0.133    -0.124  0.5044  0.7073  0.4953
     8 N(14)  Bbb    -0.0014    -0.054    -0.019    -0.018 -0.5800 -0.1474  0.8011
              Bcc     0.0110     0.426     0.152     0.142 -0.6396  0.6914 -0.3359
 
              Baa    -0.0032    -0.428    -0.153    -0.143  0.6180 -0.2773  0.7357
     9 C(13)  Bbb    -0.0022    -0.296    -0.105    -0.099  0.2108  0.9599  0.1847
              Bcc     0.0054     0.723     0.258     0.241  0.7574 -0.0409 -0.6517
 
              Baa    -0.0100    -1.339    -0.478    -0.446  0.5089  0.5237  0.6832
    10 C(13)  Bbb     0.0030     0.399     0.142     0.133 -0.6484 -0.2888  0.7044
              Bcc     0.0070     0.940     0.335     0.313 -0.5662  0.8015 -0.1926
 
              Baa    -0.0125    -1.672    -0.597    -0.558  0.0812  0.7190  0.6903
    11 C(13)  Bbb    -0.0033    -0.446    -0.159    -0.149  0.9966 -0.0491 -0.0661
              Bcc     0.0158     2.118     0.756     0.706  0.0136 -0.6933  0.7205
 
              Baa    -0.0181    -2.432    -0.868    -0.811 -0.6275  0.6658 -0.4037
    12 C(13)  Bbb     0.0058     0.778     0.278     0.260 -0.2501  0.3186  0.9143
              Bcc     0.0123     1.654     0.590     0.552  0.7374  0.6746 -0.0334
 
              Baa    -0.0017    -0.905    -0.323    -0.302  0.6961 -0.6367  0.3318
    13 H(1)   Bbb    -0.0004    -0.230    -0.082    -0.077 -0.3622  0.0877  0.9280
              Bcc     0.0021     1.135     0.405     0.378  0.6199  0.7661  0.1695
 
              Baa    -0.0148    -1.984    -0.708    -0.662  0.6615 -0.5993  0.4508
    14 C(13)  Bbb     0.0053     0.715     0.255     0.238 -0.2942  0.3455  0.8911
              Bcc     0.0095     1.269     0.453     0.423  0.6898  0.7221 -0.0522
 
              Baa    -0.0016    -0.854    -0.305    -0.285 -0.6216  0.6411 -0.4501
    15 H(1)   Bbb    -0.0004    -0.197    -0.070    -0.066 -0.0921  0.5108  0.8547
              Bcc     0.0020     1.051     0.375     0.351  0.7779  0.5727 -0.2585
 
              Baa    -0.0167    -2.236    -0.798    -0.746 -0.4759  0.5357  0.6975
    16 C(13)  Bbb     0.0029     0.394     0.141     0.131  0.2505  0.8428 -0.4763
              Bcc     0.0137     1.842     0.657     0.614  0.8431  0.0520  0.5353
 
              Baa    -0.0014    -0.182    -0.065    -0.061 -0.5410  0.3440  0.7675
    17 C(13)  Bbb    -0.0010    -0.134    -0.048    -0.045  0.1786  0.9387 -0.2948
              Bcc     0.0024     0.316     0.113     0.105  0.8218  0.0224  0.5693
 
              Baa    -0.0010    -0.537    -0.192    -0.179  0.1517  0.9884  0.0007
    18 H(1)   Bbb    -0.0009    -0.469    -0.168    -0.157 -0.6355  0.0970  0.7659
              Bcc     0.0019     1.007     0.359     0.336  0.7570 -0.1167  0.6429
 
              Baa    -0.0010    -0.545    -0.194    -0.182 -0.1121  0.9631 -0.2446
    19 H(1)   Bbb    -0.0009    -0.458    -0.164    -0.153 -0.6522  0.1144  0.7494
              Bcc     0.0019     1.003     0.358     0.335  0.7497  0.2435  0.6153
 
              Baa    -0.0009    -0.497    -0.177    -0.166  0.2060  0.8102 -0.5488
    20 H(1)   Bbb    -0.0009    -0.458    -0.163    -0.153 -0.3585  0.5843  0.7281
              Bcc     0.0018     0.955     0.341     0.319  0.9105  0.0467  0.4108
 
              Baa    -0.0018    -0.248    -0.089    -0.083  0.3103  0.7682 -0.5600
    21 C(13)  Bbb    -0.0005    -0.064    -0.023    -0.021  0.6118  0.2895  0.7361
              Bcc     0.0023     0.313     0.112     0.104  0.7276 -0.5711 -0.3802
 
              Baa    -0.0010    -0.521    -0.186    -0.174  0.1604  0.8457 -0.5089
    22 H(1)   Bbb    -0.0008    -0.436    -0.156    -0.146  0.5377  0.3575  0.7636
              Bcc     0.0018     0.957     0.342     0.319  0.8277 -0.3961 -0.3974
 
              Baa    -0.0016    -0.210    -0.075    -0.070  0.3053  0.8966  0.3206
    23 C(13)  Bbb    -0.0008    -0.111    -0.040    -0.037  0.5256 -0.4395  0.7285
              Bcc     0.0024     0.321     0.115     0.107  0.7941 -0.0539 -0.6054
 
              Baa    -0.0011    -0.564    -0.201    -0.188 -0.0635  0.9408 -0.3328
    24 H(1)   Bbb    -0.0008    -0.435    -0.155    -0.145  0.7014  0.2793  0.6557
              Bcc     0.0019     1.000     0.357     0.333  0.7099 -0.1919 -0.6777
 
              Baa    -0.0011    -0.607    -0.217    -0.202 -0.4632  0.8556 -0.2312
    25 H(1)   Bbb    -0.0009    -0.492    -0.176    -0.164  0.5744  0.4885  0.6569
              Bcc     0.0021     1.099     0.392     0.367 -0.6750 -0.1714  0.7177
 
              Baa    -0.0012    -0.631    -0.225    -0.210 -0.2627  0.8218 -0.5055
    26 H(1)   Bbb    -0.0009    -0.454    -0.162    -0.151  0.4331  0.5686  0.6994
              Bcc     0.0020     1.085     0.387     0.362  0.8622 -0.0352 -0.5053
 
              Baa    -0.0024    -0.319    -0.114    -0.106  0.0864 -0.6708  0.7366
    27 C(13)  Bbb     0.0006     0.087     0.031     0.029 -0.4918  0.6143  0.6171
              Bcc     0.0017     0.232     0.083     0.077  0.8664  0.4155  0.2768
 
              Baa    -0.0010    -0.525    -0.187    -0.175 -0.1312  0.7820 -0.6093
    28 H(1)   Bbb    -0.0008    -0.425    -0.152    -0.142 -0.5179  0.4700  0.7148
              Bcc     0.0018     0.950     0.339     0.317  0.8453  0.4093  0.3433
 
              Baa    -0.0110    -1.478    -0.527    -0.493 -0.0924  0.9759 -0.1977
    29 C(13)  Bbb     0.0027     0.366     0.131     0.122  0.9952  0.0843 -0.0494
              Bcc     0.0083     1.112     0.397     0.371  0.0316  0.2013  0.9790
 
              Baa    -0.0014    -0.729    -0.260    -0.243 -0.1650  0.9844 -0.0611
    30 H(1)   Bbb    -0.0005    -0.270    -0.096    -0.090  0.9302  0.1347 -0.3415
              Bcc     0.0019     0.999     0.356     0.333  0.3279  0.1131  0.9379
 
              Baa    -0.0100    -1.342    -0.479    -0.448 -0.1534  0.9881 -0.0098
    31 C(13)  Bbb     0.0032     0.434     0.155     0.145  0.9875  0.1536  0.0346
              Bcc     0.0068     0.908     0.324     0.303 -0.0357  0.0044  0.9994
 
              Baa    -0.0013    -0.712    -0.254    -0.238 -0.0965  0.9912 -0.0910
    32 H(1)   Bbb    -0.0005    -0.272    -0.097    -0.091  0.9623  0.1163  0.2459
              Bcc     0.0018     0.984     0.351     0.328 -0.2543  0.0639  0.9650
 
              Baa    -0.0203    -2.723    -0.972    -0.908  0.9004 -0.0310 -0.4339
    33 C(13)  Bbb    -0.0107    -1.440    -0.514    -0.480  0.4000  0.4512  0.7978
              Bcc     0.0310     4.164     1.486     1.389 -0.1710  0.8919 -0.4186
 
              Baa    -0.0091    -1.227    -0.438    -0.409  0.7954  0.5082  0.3303
    34 C(13)  Bbb    -0.0002    -0.031    -0.011    -0.010 -0.4872  0.8602 -0.1504
              Bcc     0.0094     1.258     0.449     0.420 -0.3606 -0.0413  0.9318
 
              Baa    -0.0042    -2.254    -0.804    -0.752 -0.2477 -0.2847  0.9260
    35 H(1)   Bbb    -0.0019    -1.001    -0.357    -0.334  0.9297  0.1990  0.3099
              Bcc     0.0061     3.255     1.162     1.086 -0.2725  0.9377  0.2154
 
              Baa    -0.0037    -0.503    -0.180    -0.168 -0.4684  0.6569  0.5908
    36 C(13)  Bbb    -0.0033    -0.436    -0.156    -0.146  0.4206  0.7539 -0.5048
              Bcc     0.0070     0.939     0.335     0.313  0.7770 -0.0121  0.6294
 
              Baa    -0.0199    -2.673    -0.954    -0.892  0.8606  0.4178  0.2913
    37 C(13)  Bbb    -0.0104    -1.396    -0.498    -0.465 -0.2417 -0.1685  0.9556
              Bcc     0.0303     4.068     1.452     1.357 -0.4483  0.8928  0.0441
 
              Baa    -0.0070    -0.935    -0.334    -0.312  0.4498  0.3607  0.8171
    38 C(13)  Bbb     0.0023     0.310     0.111     0.103  0.5692  0.5891 -0.5735
              Bcc     0.0047     0.625     0.223     0.209 -0.6882  0.7230  0.0596
 
              Baa    -0.0006    -0.329    -0.117    -0.110  0.5239  0.3237  0.7879
    39 H(1)   Bbb    -0.0002    -0.095    -0.034    -0.032  0.4777  0.6541 -0.5864
              Bcc     0.0008     0.423     0.151     0.141  0.7052 -0.6836 -0.1880
 
              Baa    -0.0057    -0.764    -0.273    -0.255 -0.4795 -0.3700  0.7957
    40 C(13)  Bbb     0.0004     0.055     0.020     0.018  0.4172  0.7016  0.5776
              Bcc     0.0053     0.709     0.253     0.236  0.7721 -0.6089  0.1820
 
              Baa    -0.0010    -0.559    -0.199    -0.186 -0.4633 -0.3130  0.8291
    41 H(1)   Bbb    -0.0007    -0.363    -0.129    -0.121  0.2397  0.8564  0.4573
              Bcc     0.0017     0.922     0.329     0.307  0.8532 -0.4106  0.3217
 
              Baa    -0.0181    -2.429    -0.867    -0.810 -0.4335  0.5047  0.7466
    42 C(13)  Bbb    -0.0001    -0.020    -0.007    -0.007  0.8975  0.3167  0.3070
              Bcc     0.0182     2.448     0.874     0.817 -0.0815  0.8031 -0.5902
 
              Baa    -0.0069    -3.696    -1.319    -1.233  0.6435 -0.6342 -0.4286
    43 H(1)   Bbb    -0.0029    -1.574    -0.562    -0.525  0.5448 -0.0140  0.8385
              Bcc     0.0099     5.270     1.881     1.758  0.5377  0.7731 -0.3365
 
              Baa    -0.0215    -2.880    -1.028    -0.961  0.9949  0.0993 -0.0202
    44 C(13)  Bbb    -0.0177    -2.373    -0.847    -0.792  0.0192  0.0115  0.9998
              Bcc     0.0392     5.254     1.875     1.752 -0.0995  0.9950 -0.0095
 
              Baa    -0.0124    -1.662    -0.593    -0.554  0.6374 -0.6299 -0.4438
    45 C(13)  Bbb     0.0053     0.705     0.252     0.235  0.1974 -0.4234  0.8842
              Bcc     0.0071     0.957     0.341     0.319  0.7448  0.6512  0.1455
 
              Baa    -0.0007    -0.371    -0.132    -0.124 -0.5735  0.6585  0.4873
    46 H(1)   Bbb     0.0002     0.090     0.032     0.030  0.2037 -0.4616  0.8634
              Bcc     0.0005     0.280     0.100     0.094  0.7935  0.5944  0.1306
 
              Baa    -0.0016    -0.221    -0.079    -0.074  0.1052  0.1892  0.9763
    47 C(13)  Bbb    -0.0015    -0.207    -0.074    -0.069  0.7398 -0.6710  0.0503
              Bcc     0.0032     0.428     0.153     0.143  0.6646  0.7169 -0.2106
 
              Baa    -0.0010    -0.520    -0.185    -0.173 -0.6424  0.6480  0.4091
    48 H(1)   Bbb    -0.0009    -0.477    -0.170    -0.159  0.4823 -0.0730  0.8729
              Bcc     0.0019     0.997     0.356     0.333  0.5955  0.7581 -0.2657
 
              Baa    -0.0040    -0.536    -0.191    -0.179 -0.4644 -0.2835  0.8390
    49 C(13)  Bbb     0.0005     0.065     0.023     0.022  0.6598  0.5212  0.5413
              Bcc     0.0035     0.471     0.168     0.157 -0.5908  0.8050 -0.0550
 
              Baa    -0.0010    -0.535    -0.191    -0.178 -0.4656 -0.3418  0.8163
    50 H(1)   Bbb    -0.0007    -0.394    -0.141    -0.132  0.7208  0.3887  0.5739
              Bcc     0.0017     0.929     0.332     0.310 -0.5134  0.8556  0.0654
 
              Baa    -0.0067    -0.900    -0.321    -0.300  0.6632  0.3511  0.6609
    51 C(13)  Bbb    -0.0014    -0.183    -0.065    -0.061 -0.5468 -0.3756  0.7483
              Bcc     0.0081     1.082     0.386     0.361 -0.5110  0.8577  0.0571
 
              Baa    -0.0051    -2.710    -0.967    -0.904  0.9356  0.2266 -0.2708
    52 H(1)   Bbb    -0.0033    -1.774    -0.633    -0.592  0.2582  0.0842  0.9624
              Bcc     0.0084     4.484     1.600     1.496 -0.2409  0.9703 -0.0202
 
              Baa    -0.0013    -0.168    -0.060    -0.056  0.7826  0.5257 -0.3335
    53 C(13)  Bbb    -0.0011    -0.149    -0.053    -0.050  0.2923  0.1627  0.9424
              Bcc     0.0024     0.316     0.113     0.106 -0.5497  0.8350  0.0263
 
              Baa    -0.0009    -0.491    -0.175    -0.164  0.8215  0.4603 -0.3366
    54 H(1)   Bbb    -0.0008    -0.432    -0.154    -0.144  0.2920  0.1675  0.9417
              Bcc     0.0017     0.923     0.329     0.308 -0.4898  0.8718 -0.0032
 
              Baa    -0.0084    -1.131    -0.403    -0.377  0.5244  0.6803  0.5120
    55 C(13)  Bbb    -0.0054    -0.719    -0.257    -0.240  0.6914 -0.6912  0.2102
              Bcc     0.0138     1.850     0.660     0.617 -0.4969 -0.2438  0.8329
 
              Baa    -0.0015    -0.808    -0.288    -0.269  0.5488  0.6740  0.4945
    56 H(1)   Bbb    -0.0005    -0.285    -0.102    -0.095 -0.4379 -0.2721  0.8568
              Bcc     0.0020     1.093     0.390     0.364  0.7121 -0.6868  0.1458
 
              Baa    -0.0324    -4.347    -1.551    -1.450 -0.2594  0.3696  0.8922
    57 C(13)  Bbb    -0.0277    -3.719    -1.327    -1.241  0.6675  0.7363 -0.1110
              Bcc     0.0601     8.066     2.878     2.690  0.6980 -0.5668  0.4377
 
              Baa    -0.0047    -2.497    -0.891    -0.833 -0.2543  0.3556  0.8994
    58 H(1)   Bbb    -0.0005    -0.272    -0.097    -0.091  0.6990 -0.5752  0.4250
              Bcc     0.0052     2.769     0.988     0.924  0.6684  0.7367 -0.1023
 
              Baa    -0.0300    -4.031    -1.438    -1.344 -0.3934  0.0225  0.9191
    59 C(13)  Bbb    -0.0199    -2.675    -0.954    -0.892  0.7255  0.6217  0.2953
              Bcc     0.0500     6.706     2.393     2.237 -0.5647  0.7829 -0.2609
 
              Baa    -0.0038    -2.019    -0.720    -0.673  0.6150 -0.5987  0.5131
    60 H(1)   Bbb    -0.0012    -0.648    -0.231    -0.216  0.7669  0.3027 -0.5660
              Bcc     0.0050     2.667     0.952     0.890  0.1836  0.7416  0.6453
 
              Baa    -0.0182    -9.723    -3.469    -3.243 -0.6032  0.6916 -0.3972
    61 H(1)   Bbb    -0.0093    -4.939    -1.763    -1.648  0.7353  0.6752  0.0589
              Bcc     0.0275    14.662     5.232     4.891 -0.3089  0.2566  0.9158
 
              Baa    -0.0110    -5.883    -2.099    -1.962  0.7938  0.5746  0.1993
    62 H(1)   Bbb    -0.0105    -5.602    -1.999    -1.869  0.2880 -0.6438  0.7090
              Bcc     0.0215    11.485     4.098     3.831 -0.5357  0.5053  0.6765
 
              Baa    -0.0032    -1.725    -0.616    -0.575  0.9911  0.1320 -0.0185
    63 H(1)   Bbb    -0.0005    -0.263    -0.094    -0.088 -0.1328  0.9897 -0.0532
              Bcc     0.0037     1.988     0.709     0.663  0.0112  0.0552  0.9984
 
              Baa    -0.0304     2.198     0.784     0.733 -0.4299  0.2431  0.8695
    64 O(17)  Bbb     0.0131    -0.949    -0.339    -0.316  0.2189  0.9624 -0.1608
              Bcc     0.0173    -1.249    -0.446    -0.417  0.8759 -0.1212  0.4670
 
              Baa    -0.0037    -0.498    -0.178    -0.166  0.4519 -0.5711  0.6853
    65 C(13)  Bbb    -0.0007    -0.100    -0.036    -0.033  0.6628  0.7291  0.1706
              Bcc     0.0045     0.598     0.213     0.199 -0.5971  0.3771  0.7080
 
              Baa    -0.0247     1.786     0.637     0.596 -0.2341  0.1123  0.9657
    66 O(17)  Bbb     0.0116    -0.841    -0.300    -0.281  0.9068  0.3835  0.1752
              Bcc     0.0131    -0.945    -0.337    -0.315 -0.3507  0.9167 -0.1916
 

 ---------------------------------------------------------------------------------


 This type of calculation cannot be archived.


 CONFIDENCE: THAT QUIET ASSURED FEELING YOU HAVE
 JUST BEFORE YOU FALL FLAT ON YOUR FACE.
 Job cpu time:      32 days 22 hours 21 minutes 39.8 seconds.
 Elapsed time:       2 days  1 hours 29 minutes 58.1 seconds.
 File lengths (MBytes):  RWF=   8507 Int=      0 D2E=      0 Chk=     81 Scr=      1
 Normal termination of Gaussian 16 at Mon Jun 22 21:44:19 2020.
