 Entering Gaussian System, Link 0=g16
 Initial command:
 /opt/g16/l1.exe "/scratch/848/Gau-202875.inp" -scrdir="/scratch/848/"
 Entering Link 1 = /opt/g16/l1.exe PID=    202876.
  
 Copyright (c) 1988-2017, Gaussian, Inc.  All Rights Reserved.
  
 This is part of the Gaussian(R) 16 program.  It is based on
 the Gaussian(R) 09 system (copyright 2009, Gaussian, Inc.),
 the Gaussian(R) 03 system (copyright 2003, Gaussian, Inc.),
 the Gaussian(R) 98 system (copyright 1998, Gaussian, Inc.),
 the Gaussian(R) 94 system (copyright 1995, Gaussian, Inc.),
 the Gaussian 92(TM) system (copyright 1992, Gaussian, Inc.),
 the Gaussian 90(TM) system (copyright 1990, Gaussian, Inc.),
 the Gaussian 88(TM) system (copyright 1988, Gaussian, Inc.),
 the Gaussian 86(TM) system (copyright 1986, Carnegie Mellon
 University), and the Gaussian 82(TM) system (copyright 1983,
 Carnegie Mellon University). Gaussian is a federally registered
 trademark of Gaussian, Inc.
  
 This software contains proprietary and confidential information,
 including trade secrets, belonging to Gaussian, Inc.
  
 This software is provided under written license and may be
 used, copied, transmitted, or stored only in accord with that
 written license.
  
 The following legend is applicable only to US Government
 contracts under FAR:
  
                    RESTRICTED RIGHTS LEGEND
  
 Use, reproduction and disclosure by the US Government is
 subject to restrictions as set forth in subparagraphs (a)
 and (c) of the Commercial Computer Software - Restricted
 Rights clause in FAR 52.227-19.
  
 Gaussian, Inc.
 340 Quinnipiac St., Bldg. 40, Wallingford CT 06492
  
  
 ---------------------------------------------------------------
 Warning -- This program may not be used in any manner that
 competes with the business of Gaussian, Inc. or will provide
 assistance to any competitor of Gaussian, Inc.  The licensee
 of this program is prohibited from giving any competitor of
 Gaussian, Inc. access to this program.  By using this program,
 the user acknowledges that Gaussian, Inc. is engaged in the
 business of creating and licensing software in the field of
 computational chemistry and represents and warrants to the
 licensee that it is not a competitor of Gaussian, Inc. and that
 it will not use this program in any manner prohibited above.
 ---------------------------------------------------------------
  

 Cite this work as:
 Gaussian 16, Revision B.01,
 M. J. Frisch, G. W. Trucks, H. B. Schlegel, G. E. Scuseria, 
 M. A. Robb, J. R. Cheeseman, G. Scalmani, V. Barone, 
 G. A. Petersson, H. Nakatsuji, X. Li, M. Caricato, A. V. Marenich, 
 J. Bloino, B. G. Janesko, R. Gomperts, B. Mennucci, H. P. Hratchian, 
 J. V. Ortiz, A. F. Izmaylov, J. L. Sonnenberg, D. Williams-Young, 
 F. Ding, F. Lipparini, F. Egidi, J. Goings, B. Peng, A. Petrone, 
 T. Henderson, D. Ranasinghe, V. G. Zakrzewski, J. Gao, N. Rega, 
 G. Zheng, W. Liang, M. Hada, M. Ehara, K. Toyota, R. Fukuda, 
 J. Hasegawa, M. Ishida, T. Nakajima, Y. Honda, O. Kitao, H. Nakai, 
 T. Vreven, K. Throssell, J. A. Montgomery, Jr., J. E. Peralta, 
 F. Ogliaro, M. J. Bearpark, J. J. Heyd, E. N. Brothers, K. N. Kudin, 
 V. N. Staroverov, T. A. Keith, R. Kobayashi, J. Normand, 
 K. Raghavachari, A. P. Rendell, J. C. Burant, S. S. Iyengar, 
 J. Tomasi, M. Cossi, J. M. Millam, M. Klene, C. Adamo, R. Cammi, 
 J. W. Ochterski, R. L. Martin, K. Morokuma, O. Farkas, 
 J. B. Foresman, and D. J. Fox, Gaussian, Inc., Wallingford CT, 2016.
 
 ******************************************
 Gaussian 16:  ES64L-G16RevB.01 20-Dec-2017
                 1-Aug-2020 
 ******************************************
 %nprocshared=16
 Will use up to   16 processors via shared memory.
 %mem=32GB
 %chk=H2CO2IRC_M1.chk
 ----------------------------------------------------------------------
 # BP86/6-31+G(d,p) NoSymm SCF=(maxcyc=200,NoVarAcc,XQC) Int=(Grid=Ultr
 afine,acc2e=12) # Guess=Read Geom=Check IRC=(CalcAll,Recorrect=Never,P
 hase(1,5),MaxPoints=500,StepSize=10,MaxCycle=666,Report=cartesian)
 ----------------------------------------------------------------------
 1/6=666,10=4,18=10,26=4,29=2,38=1,39=10,42=500,44=3,71=1,101=1,102=5,129=10,131=1,172=1/1,23;
 2/12=2,15=1,29=1,40=1/2;
 3/5=1,6=6,7=111,11=2,14=-4,25=1,27=12,30=1,71=2,74=404,75=-5,116=-2,140=1/1,2,3;
 4/5=1/1;
 5/5=2,7=200,8=3,13=1,38=6,87=12/2,8;
 8/6=4,10=90,11=11,87=12/1;
 11/6=1,8=1,9=11,15=111,16=1,31=1,87=12/1,2,10;
 10/6=1,13=1,31=1,87=12/2;
 6/7=2,8=2,9=2,10=2,18=1,28=1,87=12/1;
 7/10=1,25=1,30=1,87=12/1,2,3,16;
 1/6=666,10=4,18=10,26=4,39=10,42=500,44=3,71=1,101=1,102=5,129=10,131=1/23(2);
 2/15=1,29=1/2;
 99/5=20/99;
 2/15=1,29=1/2;
 3/5=1,6=6,7=111,11=2,14=-2,25=1,27=12,30=1,71=2,74=404,75=-5,140=1/1,2,3;
 4/5=5,16=3,69=1/1;
 5/5=2,7=200,8=3,13=1,38=1,87=12/2,8;
 8/6=4,10=90,11=11,87=12/1;
 11/6=1,8=1,9=11,15=111,16=1,31=1,87=12/1,2,10;
 10/6=1,13=1,31=1,87=12/2;
 7/10=1,25=1,30=1,87=12/1,2,3,16;
 1/6=666,10=4,18=10,26=4,39=10,42=500,44=3,71=1,101=1,102=5,129=10,131=1/23(-8);
 2/15=1,29=1/2;
 6/7=2,8=2,9=2,10=2,18=1,19=2,28=1,87=12/1;
 99/5=20/99;
 -------------------------------------------------
 IRC of the H2 + CO2 --> HCOOH 2S+1=1 in gas phase
 -------------------------------------------------
 Structure from the checkpoint file:  "H2CO2IRC_M1.chk"
 Charge =  0 Multiplicity = 1
 No Z-Matrix found in chk file; cartesian coordinates used.
  H                                                 0.351766008136     -0.066197917929     -3.281244883344
  H                                                 0.734611744432     -0.575143890104     -2.466547024827
  O                                                 2.332018443930     -1.700969762125     -3.466005186473
  C                                                 1.456976313877     -0.915912633561     -3.660618178010
  O                                                 0.846333489625     -0.204066796281     -4.519440727345
 Recover connectivity data from disk.
 IRC-IRC-IRC-IRC-IRC-IRC-IRC-IRC-IRC-IRC-IRC-IRC-IRC-IRC-IRC-IRC-IRC-IRC
 ------------------------------------------------------------------------
 INPUT DATA FOR L123
 ------------------------------------------------------------------------
 GENERAL PARAMETERS:
 Follow reaction path in both directions.
 Maximum points per path      = 500
 Step size                    =   0.100 bohr
 Integration scheme           = HPC                                 
    Redo corrector integration= Never                               
    DWI Weight Power          =  2
    DWI will use Hessian update vectors when possible.
 Initial Hessian              = CalcFC
 Hessian evaluation           = Analytic at all predictor steps
                              = Update at all corrector steps
 Hessian updating method      = Bofill                              
 ------------------------------------------------------------------------
 IRC-IRC-IRC-IRC-IRC-IRC-IRC-IRC-IRC-IRC-IRC-IRC-IRC-IRC-IRC-IRC-IRC-IRC
                          Input orientation:                          
 ---------------------------------------------------------------------
 Center     Atomic      Atomic             Coordinates (Angstroms)
 Number     Number       Type             X           Y           Z
 ---------------------------------------------------------------------
      1          1           0        0.351766   -0.066198   -3.281245
      2          1           0        0.734612   -0.575144   -2.466547
      3          8           0        2.332018   -1.700970   -3.466005
      4          6           0        1.456976   -0.915913   -3.660618
      5          8           0        0.846333   -0.204067   -4.519441
 ---------------------------------------------------------------------
                    Distance matrix (angstroms):
                    1          2          3          4          5
     1  H    0.000000
     2  H    1.034084   0.000000
     3  O    2.574493   2.195019   0.000000
     4  C    1.444794   1.436572   1.191590   0.000000
     5  O    1.340423   2.089151   2.357478   1.271686   0.000000
 Symmetry turned off by external request.
 Stoichiometry    CH2O2
 Framework group  C1[X(CH2O2)]
 Deg. of freedom     9
 Full point group                 C1      NOp   1
 Rotational constants (GHZ):          95.4546545          11.0908010           9.9363091
 Standard basis: 6-31+G(d,p) (6D, 7F)
    67 basis functions,   110 primitive gaussians,    67 cartesian basis functions
    12 alpha electrons       12 beta electrons
       nuclear repulsion energy        69.3334330632 Hartrees.
 NAtoms=    5 NActive=    5 NUniq=    5 SFac= 1.00D+00 NAtFMM=   60 NAOKFM=F Big=F
 Integral buffers will be    131072 words long.
 Raffenetti 2 integral format.
 Two-electron integral symmetry is turned off.
 One-electron integrals computed using PRISM.
 NBasis=    67 RedAO= T EigKep=  2.71D-03  NBF=    67
 NBsUse=    67 1.00D-06 EigRej= -1.00D+00 NBFU=    67
 Initial guess from the checkpoint file:  "H2CO2IRC_M1.chk"
 B after Tr=     0.000000    0.000000    0.000000
         Rot=    1.000000    0.000000    0.000000    0.000000 Ang=   0.00 deg.
 Keep J ints in memory in canonical form, NReq=16824991.
 Requested convergence on RMS density matrix=1.00D-08 within 128 cycles.
 Requested convergence on MAX density matrix=1.00D-06.
 Requested convergence on             energy=1.00D-06.
 No special actions if energy rises.
 SCF Done:  E(RB-P86) =  -189.674084035     A.U. after    1 cycles
            NFock=  1  Conv=0.96D-09     -V/T= 2.0098
 QCSCF skips out because SCF is already converged.
 DoSCS=F DFT=T ScalE2(SS,OS)=  1.000000  1.000000
 Range of M.O.s used for correlation:     1    67
 NBasis=    67 NAE=    12 NBE=    12 NFC=     0 NFV=     0
 NROrb=     67 NOA=    12 NOB=    12 NVA=    55 NVB=    55
 Symmetrizing basis deriv contribution to polar:
 IMax=3 JMax=2 DiffMx= 0.00D+00
 G2DrvN: will do     6 centers at a time, making    1 passes.
 Calling FoFCou, ICntrl=  3507 FMM=F I1Cent=   0 AccDes= 1.00D-12.
 End of G2Drv F.D. properties file   721 does not exist.
 End of G2Drv F.D. properties file   722 does not exist.
 End of G2Drv F.D. properties file   788 does not exist.
          IDoAtm=11111
          Differentiating once with respect to nuclear coordinates.
 Keep J ints in memory in canonical form, NReq=16773591.
          There are    18 degrees of freedom in the 1st order CPHF.  IDoFFX=6 NUNeed=     0.
     12 vectors produced by pass  0 Test12= 3.67D-15 5.56D-09 XBig12= 1.35D-01 2.52D-01.
 AX will form    12 AO Fock derivatives at one time.
     12 vectors produced by pass  1 Test12= 3.67D-15 5.56D-09 XBig12= 1.16D-02 5.79D-02.
     12 vectors produced by pass  2 Test12= 3.67D-15 5.56D-09 XBig12= 1.03D-04 2.34D-03.
     12 vectors produced by pass  3 Test12= 3.67D-15 5.56D-09 XBig12= 1.01D-06 2.42D-04.
     12 vectors produced by pass  4 Test12= 3.67D-15 5.56D-09 XBig12= 3.29D-09 1.38D-05.
     10 vectors produced by pass  5 Test12= 3.67D-15 5.56D-09 XBig12= 1.50D-12 2.96D-07.
      2 vectors produced by pass  6 Test12= 3.67D-15 5.56D-09 XBig12= 7.69D-16 6.56D-09.
 InvSVY:  IOpt=1 It=  1 EMax= 6.66D-16
 Solved reduced A of dimension    72 with    12 vectors.
 End of Minotr F.D. properties file   721 does not exist.
 End of Minotr F.D. properties file   722 does not exist.
 End of Minotr F.D. properties file   788 does not exist.

 **********************************************************************

            Population analysis using the SCF Density.

 **********************************************************************

 Alpha  occ. eigenvalues --  -18.87232 -18.86779 -10.12312  -1.06103  -1.00556
 Alpha  occ. eigenvalues --   -0.58882  -0.50472  -0.45756  -0.44899  -0.34995
 Alpha  occ. eigenvalues --   -0.32235  -0.28837
 Alpha virt. eigenvalues --   -0.09286  -0.06153   0.00798   0.01497   0.04808
 Alpha virt. eigenvalues --    0.06315   0.10839   0.15651   0.17039   0.18603
 Alpha virt. eigenvalues --    0.18931   0.22830   0.23998   0.25301   0.28931
 Alpha virt. eigenvalues --    0.30795   0.45553   0.57250   0.60558   0.69410
 Alpha virt. eigenvalues --    0.78842   0.87599   1.02546   1.03514   1.09704
 Alpha virt. eigenvalues --    1.12462   1.15217   1.18514   1.20331   1.24607
 Alpha virt. eigenvalues --    1.31067   1.37785   1.45622   1.49816   1.51811
 Alpha virt. eigenvalues --    1.59428   1.72870   1.73337   1.77219   1.88216
 Alpha virt. eigenvalues --    1.93518   2.05238   2.14840   2.30525   2.49410
 Alpha virt. eigenvalues --    2.62880   2.67630   2.82427   2.91375   3.02802
 Alpha virt. eigenvalues --    3.09145   3.36023   3.96267   4.18246   4.33348
          Condensed to atoms (all electrons):
               1          2          3          4          5
     1  H    0.514813   0.185464   0.004356   0.113020  -0.053049
     2  H    0.185464   0.866716  -0.053783   0.257321  -0.227241
     3  O    0.004356  -0.053783   8.061762   0.394498  -0.095129
     4  C    0.113020   0.257321   0.394498   4.809057   0.061310
     5  O   -0.053049  -0.227241  -0.095129   0.061310   8.574119
 Mulliken charges:
               1
     1  H    0.235396
     2  H   -0.028477
     3  O   -0.311705
     4  C    0.364795
     5  O   -0.260010
 Sum of Mulliken charges =  -0.00000
 Mulliken charges with hydrogens summed into heavy atoms:
               1
     3  O   -0.311705
     4  C    0.336319
     5  O   -0.024614
 APT charges:
               1
     1  H    0.226384
     2  H   -0.209357
     3  O    0.012199
     4  C    0.253964
     5  O   -0.283190
 Sum of APT charges =   0.00000
 APT charges with hydrogens summed into heavy atoms:
               1
     3  O    0.012199
     4  C    0.044607
     5  O   -0.056806
 Electronic spatial extent (au):  <R**2>=           1653.0708
 Charge=              0.0000 electrons
 Dipole moment (field-independent basis, Debye):
    X=             -1.2458    Y=              0.7612    Z=              1.2945  Tot=              1.9512
 Quadrupole moment (field-independent basis, Debye-Ang):
   XX=            -21.6194   YY=            -19.8948   ZZ=            -28.9134
   XY=              3.0354   XZ=              4.9862   YZ=             -2.2858
 Traceless Quadrupole moment (field-independent basis, Debye-Ang):
   XX=              1.8565   YY=              3.5811   ZZ=             -5.4375
   XY=              3.0354   XZ=              4.9862   YZ=             -2.2858
 Octapole moment (field-independent basis, Debye-Ang**2):
  XXX=            -87.8586  YYY=             51.4293  ZZZ=            272.8619  XYY=            -32.5743
  XXY=             24.8149  XXZ=             80.3017  XZZ=            -46.8665  YZZ=             22.5709
  YYZ=             73.7390  XYZ=             -9.6842
 Hexadecapole moment (field-independent basis, Debye-Ang**3):
 XXXX=           -313.4117 YYYY=           -147.8442 ZZZZ=          -1979.8374 XXXY=            113.3414
 XXXZ=            319.4584 YYYX=            102.1807 YYYZ=           -181.2367 ZZZX=            378.0672
 ZZZY=           -188.7430 XXYY=            -89.0250 XXZZ=           -355.8970 YYZZ=           -305.4921
 XXYZ=            -85.8206 YYXZ=            117.2303 ZZXY=             60.1779
 N-N= 6.933343306319D+01 E-N=-5.834644782090D+02  KE= 1.878315036538D+02
  Exact polarizability:   0.000   0.000   0.000   0.000   0.000   0.000
 Approx polarizability:  52.840 -29.510  45.301   1.490  -8.500  50.296
 Calling FoFJK, ICntrl=    100527 FMM=F ISym2X=0 I1Cent= 0 IOpClX= 0 NMat=1 NMatS=1 NMatT=0.
 -------------------------------------------------------------------
 Center     Atomic                   Forces (Hartrees/Bohr)
 Number     Number              X              Y              Z
 -------------------------------------------------------------------
      1        1          -0.000000085   -0.000000105   -0.000000029
      2        1          -0.000000039   -0.000000090    0.000000009
      3        8           0.000000261    0.000000270    0.000000025
      4        6          -0.000000009    0.000000047    0.000000019
      5        8          -0.000000128   -0.000000123   -0.000000023
 -------------------------------------------------------------------
 Cartesian Forces:  Max     0.000000270 RMS     0.000000117
 IRC-IRC-IRC-IRC-IRC-IRC-IRC-IRC-IRC-IRC-IRC-IRC-IRC-IRC-IRC-IRC-IRC-IRC
          ******** Start new reaction path calculation ********
 Setting the phase of the TS vector:      1      5      0      0
 Supplied step size of   0.1000 bohr.
    Integration on MW PES will use step size of   0.1083 sqrt(amu)*bohr.
 Point Number:   0          Path Number:   1
 Calculating another point on the path.
 IRC-IRC-IRC-IRC-IRC-IRC-IRC-IRC-IRC-IRC-IRC-IRC-IRC-IRC-IRC-IRC-IRC-IRC
                          Input orientation:                          
 ---------------------------------------------------------------------
 Center     Atomic      Atomic             Coordinates (Angstroms)
 Number     Number       Type             X           Y           Z
 ---------------------------------------------------------------------
      1          1           0       -1.155176    0.836940    0.622211
      2          1           0       -0.789388    0.350442    1.401620
      3          8           0        0.822270   -0.785202    0.392253
      4          6           0       -0.051392    0.000265    0.190679
      5          8           0       -0.661188    0.710188   -0.662827
 ---------------------------------------------------------------------
                    Distance matrix (angstroms):
                    1          2          3          4          5
     1  H    0.000000
     2  H    0.988918   0.000000
     3  O    2.567980   2.214938   0.000000
     4  C    1.450720   1.460699   1.192005   0.000000
     5  O    1.382539   2.099475   2.355851   1.266615   0.000000
 Symmetry turned off by external request.
 Stoichiometry    CH2O2
 Framework group  C1[X(CH2O2)]
 Deg. of freedom     9
 Full point group                 C1      NOp   1
 Rotational constants (GHZ):          93.2355789          11.1208202           9.9357214
 Standard basis: 6-31+G(d,p) (6D, 7F)
    67 basis functions,   110 primitive gaussians,    67 cartesian basis functions
    12 alpha electrons       12 beta electrons
       nuclear repulsion energy        69.2744526062 Hartrees.
 NAtoms=    5 NActive=    5 NUniq=    5 SFac= 1.00D+00 NAtFMM=   60 NAOKFM=F Big=F
 Integral buffers will be    131072 words long.
 Raffenetti 2 integral format.
 Two-electron integral symmetry is turned off.
 One-electron integrals computed using PRISM.
 NBasis=    67 RedAO= T EigKep=  2.66D-03  NBF=    67
 NBsUse=    67 1.00D-06 EigRej= -1.00D+00 NBFU=    67
 Initial guess from the checkpoint file:  "H2CO2IRC_M1.chk"
 B after Tr=    -2.846927    1.724707    7.294094
         Rot=    1.000000   -0.000306   -0.000361   -0.000082 Ang=  -0.05 deg.
 ExpMin= 4.38D-02 ExpMax= 5.48D+03 ExpMxC= 8.25D+02 IAcc=3 IRadAn=         5 AccDes= 0.00D+00
 Harris functional with IExCor=  404 and IRadAn=       5 diagonalized for initial guess.
 HarFok:  IExCor=  404 AccDes= 0.00D+00 IRadAn=         5 IDoV= 1 UseB2=F ITyADJ=14
 ICtDFT=  3500011 ScaDFX=  1.000000  1.000000  1.000000  1.000000
 FoFCou: FMM=F IPFlag=           0 FMFlag=      100000 FMFlg1=           0
         NFxFlg=           0 DoJE=T BraDBF=F KetDBF=T FulRan=T
         wScrn=  0.000000 ICntrl=       500 IOpCl=  0 I1Cent=   200000004 NGrid=           0
         NMat0=    1 NMatS0=      1 NMatT0=    0 NMatD0=    1 NMtDS0=    0 NMtDT0=    0
 Symmetry not used in FoFCou.
 Keep J ints in memory in canonical form, NReq=16824991.
 Requested convergence on RMS density matrix=1.00D-08 within 128 cycles.
 Requested convergence on MAX density matrix=1.00D-06.
 Requested convergence on             energy=1.00D-06.
 No special actions if energy rises.
 EnCoef did     5 forward-backward iterations
 SCF Done:  E(RB-P86) =  -189.674959397     A.U. after   10 cycles
            NFock= 10  Conv=0.52D-08     -V/T= 2.0098
 QCSCF skips out because SCF is already converged.
 DoSCS=F DFT=T ScalE2(SS,OS)=  1.000000  1.000000
 Range of M.O.s used for correlation:     1    67
 NBasis=    67 NAE=    12 NBE=    12 NFC=     0 NFV=     0
 NROrb=     67 NOA=    12 NOB=    12 NVA=    55 NVB=    55
 Symmetrizing basis deriv contribution to polar:
 IMax=3 JMax=2 DiffMx= 0.00D+00
 G2DrvN: will do     6 centers at a time, making    1 passes.
 Calling FoFCou, ICntrl=  3507 FMM=F I1Cent=   0 AccDes= 1.00D-12.
 End of G2Drv F.D. properties file   721 does not exist.
 End of G2Drv F.D. properties file   722 does not exist.
 End of G2Drv F.D. properties file   788 does not exist.
          IDoAtm=11111
          Differentiating once with respect to nuclear coordinates.
 Keep J ints in memory in canonical form, NReq=16773591.
          There are    18 degrees of freedom in the 1st order CPHF.  IDoFFX=6 NUNeed=     0.
     12 vectors produced by pass  0 Test12= 3.67D-15 5.56D-09 XBig12= 1.36D-01 2.58D-01.
 AX will form    12 AO Fock derivatives at one time.
     12 vectors produced by pass  1 Test12= 3.67D-15 5.56D-09 XBig12= 1.39D-02 6.80D-02.
     12 vectors produced by pass  2 Test12= 3.67D-15 5.56D-09 XBig12= 2.11D-04 3.21D-03.
     12 vectors produced by pass  3 Test12= 3.67D-15 5.56D-09 XBig12= 2.27D-06 4.04D-04.
     12 vectors produced by pass  4 Test12= 3.67D-15 5.56D-09 XBig12= 6.72D-09 2.12D-05.
      9 vectors produced by pass  5 Test12= 3.67D-15 5.56D-09 XBig12= 3.35D-12 3.85D-07.
      2 vectors produced by pass  6 Test12= 3.67D-15 5.56D-09 XBig12= 1.10D-15 9.13D-09.
 InvSVY:  IOpt=1 It=  1 EMax= 1.67D-15
 Solved reduced A of dimension    71 with    12 vectors.
 End of Minotr F.D. properties file   721 does not exist.
 End of Minotr F.D. properties file   722 does not exist.
 End of Minotr F.D. properties file   788 does not exist.
 Calling FoFJK, ICntrl=    100527 FMM=F ISym2X=0 I1Cent= 0 IOpClX= 0 NMat=1 NMatS=1 NMatT=0.
 -------------------------------------------------------------------
 Center     Atomic                   Forces (Hartrees/Bohr)
 Number     Number              X              Y              Z
 -------------------------------------------------------------------
      1        1           0.000166937   -0.003075181    0.012933173
      2        1          -0.004258323    0.002833008    0.003404663
      3        8          -0.003948445    0.002116618    0.005409550
      4        6           0.001958817    0.002905543   -0.020121659
      5        8           0.006081013   -0.004779988   -0.001625728
 -------------------------------------------------------------------
 Cartesian Forces:  Max     0.020121659 RMS     0.007040201
 IRC-IRC-IRC-IRC-IRC-IRC-IRC-IRC-IRC-IRC-IRC-IRC-IRC-IRC-IRC-IRC-IRC-IRC
 Pt  1 Step number   1 out of a maximum of 666
 Modified Bulirsch-Stoer Extrapolation Cycles:
    EPS =    0.000010000000000
      PEZero:  N= 2 I= 1 D=  2.82D-04 Err=  6.81D-04
      PEZero:  N= 3 I= 2 D=  2.82D-04 Err=  4.54D-04
      PEZero:  N= 3 I= 1 D=  5.64D-04 Err=  3.08D-08
 Maximum DWI energy   std dev =  0.000002998 at pt     1
 Maximum DWI gradient std dev =  0.007521711 at pt    30
 Point Number:   1          Path Number:   1
   CHANGE IN THE REACTION COORDINATE =    0.10827
   NET REACTION COORDINATE UP TO THIS POINT =    0.10827
  # OF POINTS ALONG THE PATH =   1
  # OF STEPS =   1

 Calculating another point on the path.
 IRC-IRC-IRC-IRC-IRC-IRC-IRC-IRC-IRC-IRC-IRC-IRC-IRC-IRC-IRC-IRC-IRC-IRC
                          Input orientation:                          
 ---------------------------------------------------------------------
 Center     Atomic      Atomic             Coordinates (Angstroms)
 Number     Number       Type             X           Y           Z
 ---------------------------------------------------------------------
      1          1           0       -1.154862    0.826255    0.668139
      2          1           0       -0.804729    0.360666    1.413804
      3          8           0        0.821384   -0.784730    0.393479
      4          6           0       -0.050761    0.001114    0.184579
      5          8           0       -0.659829    0.709108   -0.663139
 ---------------------------------------------------------------------
                    Distance matrix (angstroms):
                    1          2          3          4          5
     1  H    0.000000
     2  H    0.946247   0.000000
     3  O    2.564422   2.235450   0.000000
     4  C    1.460728   1.486182   1.192404   0.000000
     5  O    1.425160   2.110947   2.354142   1.261287   0.000000
 Symmetry turned off by external request.
 Stoichiometry    CH2O2
 Framework group  C1[X(CH2O2)]
 Deg. of freedom     9
 Full point group                 C1      NOp   1
 Rotational constants (GHZ):          91.0073753          11.1501850           9.9331764
 Standard basis: 6-31+G(d,p) (6D, 7F)
    67 basis functions,   110 primitive gaussians,    67 cartesian basis functions
    12 alpha electrons       12 beta electrons
       nuclear repulsion energy        69.2165560094 Hartrees.
 NAtoms=    5 NActive=    5 NUniq=    5 SFac= 1.00D+00 NAtFMM=   60 NAOKFM=F Big=F
 Integral buffers will be    131072 words long.
 Raffenetti 2 integral format.
 Two-electron integral symmetry is turned off.
 One-electron integrals computed using PRISM.
 NBasis=    67 RedAO= T EigKep=  2.62D-03  NBF=    67
 NBsUse=    67 1.00D-06 EigRej= -1.00D+00 NBFU=    67
 Initial guess from the checkpoint file:  "H2CO2IRC_M1.chk"
 B after Tr=    -0.000635    0.000041    0.002189
         Rot=    1.000000   -0.000298   -0.000352   -0.000080 Ang=  -0.05 deg.
 ExpMin= 4.38D-02 ExpMax= 5.48D+03 ExpMxC= 8.25D+02 IAcc=3 IRadAn=         5 AccDes= 0.00D+00
 Harris functional with IExCor=  404 and IRadAn=       5 diagonalized for initial guess.
 HarFok:  IExCor=  404 AccDes= 0.00D+00 IRadAn=         5 IDoV= 1 UseB2=F ITyADJ=14
 ICtDFT=  3500011 ScaDFX=  1.000000  1.000000  1.000000  1.000000
 FoFCou: FMM=F IPFlag=           0 FMFlag=      100000 FMFlg1=           0
         NFxFlg=           0 DoJE=T BraDBF=F KetDBF=T FulRan=T
         wScrn=  0.000000 ICntrl=       500 IOpCl=  0 I1Cent=   200000004 NGrid=           0
         NMat0=    1 NMatS0=      1 NMatT0=    0 NMatD0=    1 NMtDS0=    0 NMtDT0=    0
 Symmetry not used in FoFCou.
 Keep J ints in memory in canonical form, NReq=16824991.
 Requested convergence on RMS density matrix=1.00D-08 within 128 cycles.
 Requested convergence on MAX density matrix=1.00D-06.
 Requested convergence on             energy=1.00D-06.
 No special actions if energy rises.
 EnCoef did     5 forward-backward iterations
 SCF Done:  E(RB-P86) =  -189.677471011     A.U. after   10 cycles
            NFock= 10  Conv=0.46D-08     -V/T= 2.0098
 QCSCF skips out because SCF is already converged.
 DoSCS=F DFT=T ScalE2(SS,OS)=  1.000000  1.000000
 Range of M.O.s used for correlation:     1    67
 NBasis=    67 NAE=    12 NBE=    12 NFC=     0 NFV=     0
 NROrb=     67 NOA=    12 NOB=    12 NVA=    55 NVB=    55
 Symmetrizing basis deriv contribution to polar:
 IMax=3 JMax=2 DiffMx= 0.00D+00
 G2DrvN: will do     6 centers at a time, making    1 passes.
 Calling FoFCou, ICntrl=  3507 FMM=F I1Cent=   0 AccDes= 1.00D-12.
 End of G2Drv F.D. properties file   721 does not exist.
 End of G2Drv F.D. properties file   722 does not exist.
 End of G2Drv F.D. properties file   788 does not exist.
          IDoAtm=11111
          Differentiating once with respect to nuclear coordinates.
 Keep J ints in memory in canonical form, NReq=16773591.
          There are    18 degrees of freedom in the 1st order CPHF.  IDoFFX=6 NUNeed=     0.
     12 vectors produced by pass  0 Test12= 3.67D-15 5.56D-09 XBig12= 1.32D-01 2.57D-01.
 AX will form    12 AO Fock derivatives at one time.
     12 vectors produced by pass  1 Test12= 3.67D-15 5.56D-09 XBig12= 1.51D-02 7.68D-02.
     12 vectors produced by pass  2 Test12= 3.67D-15 5.56D-09 XBig12= 4.00D-04 4.19D-03.
     12 vectors produced by pass  3 Test12= 3.67D-15 5.56D-09 XBig12= 4.86D-06 6.17D-04.
     12 vectors produced by pass  4 Test12= 3.67D-15 5.56D-09 XBig12= 1.41D-08 3.25D-05.
      9 vectors produced by pass  5 Test12= 3.67D-15 5.56D-09 XBig12= 7.32D-12 5.36D-07.
      2 vectors produced by pass  6 Test12= 3.67D-15 5.56D-09 XBig12= 2.26D-15 8.84D-09.
 InvSVY:  IOpt=1 It=  1 EMax= 9.99D-16
 Solved reduced A of dimension    71 with    12 vectors.
 End of Minotr F.D. properties file   721 does not exist.
 End of Minotr F.D. properties file   722 does not exist.
 End of Minotr F.D. properties file   788 does not exist.
 Calling FoFJK, ICntrl=    100527 FMM=F ISym2X=0 I1Cent= 0 IOpClX= 0 NMat=1 NMatS=1 NMatT=0.
 -------------------------------------------------------------------
 Center     Atomic                   Forces (Hartrees/Bohr)
 Number     Number              X              Y              Z
 -------------------------------------------------------------------
      1        1          -0.000221600   -0.005283723    0.024120113
      2        1          -0.008049383    0.005252346    0.006889648
      3        8          -0.007517599    0.003986546    0.010488572
      4        6           0.004304111    0.005258170   -0.039248483
      5        8           0.011484470   -0.009213340   -0.002249850
 -------------------------------------------------------------------
 Cartesian Forces:  Max     0.039248483 RMS     0.013516578
 IRC-IRC-IRC-IRC-IRC-IRC-IRC-IRC-IRC-IRC-IRC-IRC-IRC-IRC-IRC-IRC-IRC-IRC
 Pt  2 Step number   1 out of a maximum of 666
 Modified Bulirsch-Stoer Extrapolation Cycles:
    EPS =    0.000010000000000
      PEZero:  N= 2 I= 1 D=  5.64D-04 Err=  1.47D-05
      PEZero:  N= 3 I= 2 D=  5.64D-04 Err=  9.82D-06
      PEZero:  N= 3 I= 1 D=  1.13D-03 Err=  3.37D-08
 Maximum DWI energy   std dev =  0.000007251 at pt    28
 Maximum DWI gradient std dev =  0.008438588 at pt    25
 Point Number:   2          Path Number:   1
   CHANGE IN THE REACTION COORDINATE =    0.10823
   NET REACTION COORDINATE UP TO THIS POINT =    0.21651
  # OF POINTS ALONG THE PATH =   2
  # OF STEPS =   1

 Calculating another point on the path.
 IRC-IRC-IRC-IRC-IRC-IRC-IRC-IRC-IRC-IRC-IRC-IRC-IRC-IRC-IRC-IRC-IRC-IRC
                          Input orientation:                          
 ---------------------------------------------------------------------
 Center     Atomic      Atomic             Coordinates (Angstroms)
 Number     Number       Type             X           Y           Z
 ---------------------------------------------------------------------
      1          1           0       -1.155812    0.816749    0.713595
      2          1           0       -0.820004    0.370546    1.427263
      3          8           0        0.820481   -0.784254    0.394750
      4          6           0       -0.050023    0.001930    0.178225
      5          8           0       -0.658458    0.707996   -0.663354
 ---------------------------------------------------------------------
                    Distance matrix (angstroms):
                    1          2          3          4          5
     1  H    0.000000
     2  H    0.906193   0.000000
     3  O    2.563320   2.256289   0.000000
     4  C    1.474218   1.512893   1.192790   0.000000
     5  O    1.468052   2.123829   2.352373   1.255778   0.000000
 Symmetry turned off by external request.
 Stoichiometry    CH2O2
 Framework group  C1[X(CH2O2)]
 Deg. of freedom     9
 Full point group                 C1      NOp   1
 Rotational constants (GHZ):          88.7718791          11.1790225           9.9287032
 Standard basis: 6-31+G(d,p) (6D, 7F)
    67 basis functions,   110 primitive gaussians,    67 cartesian basis functions
    12 alpha electrons       12 beta electrons
       nuclear repulsion energy        69.1602105577 Hartrees.
 NAtoms=    5 NActive=    5 NUniq=    5 SFac= 1.00D+00 NAtFMM=   60 NAOKFM=F Big=F
 Integral buffers will be    131072 words long.
 Raffenetti 2 integral format.
 Two-electron integral symmetry is turned off.
 One-electron integrals computed using PRISM.
 NBasis=    67 RedAO= T EigKep=  2.57D-03  NBF=    67
 NBsUse=    67 1.00D-06 EigRej= -1.00D+00 NBFU=    67
 Initial guess from the checkpoint file:  "H2CO2IRC_M1.chk"
 B after Tr=    -0.000683    0.000075    0.002221
         Rot=    1.000000   -0.000296   -0.000349   -0.000079 Ang=  -0.05 deg.
 ExpMin= 4.38D-02 ExpMax= 5.48D+03 ExpMxC= 8.25D+02 IAcc=3 IRadAn=         5 AccDes= 0.00D+00
 Harris functional with IExCor=  404 and IRadAn=       5 diagonalized for initial guess.
 HarFok:  IExCor=  404 AccDes= 0.00D+00 IRadAn=         5 IDoV= 1 UseB2=F ITyADJ=14
 ICtDFT=  3500011 ScaDFX=  1.000000  1.000000  1.000000  1.000000
 FoFCou: FMM=F IPFlag=           0 FMFlag=      100000 FMFlg1=           0
         NFxFlg=           0 DoJE=T BraDBF=F KetDBF=T FulRan=T
         wScrn=  0.000000 ICntrl=       500 IOpCl=  0 I1Cent=   200000004 NGrid=           0
         NMat0=    1 NMatS0=      1 NMatT0=    0 NMatD0=    1 NMtDS0=    0 NMtDT0=    0
 Symmetry not used in FoFCou.
 Keep J ints in memory in canonical form, NReq=16824991.
 Requested convergence on RMS density matrix=1.00D-08 within 128 cycles.
 Requested convergence on MAX density matrix=1.00D-06.
 Requested convergence on             energy=1.00D-06.
 No special actions if energy rises.
 EnCoef did     5 forward-backward iterations
 SCF Done:  E(RB-P86) =  -189.681351942     A.U. after   10 cycles
            NFock= 10  Conv=0.41D-08     -V/T= 2.0097
 QCSCF skips out because SCF is already converged.
 DoSCS=F DFT=T ScalE2(SS,OS)=  1.000000  1.000000
 Range of M.O.s used for correlation:     1    67
 NBasis=    67 NAE=    12 NBE=    12 NFC=     0 NFV=     0
 NROrb=     67 NOA=    12 NOB=    12 NVA=    55 NVB=    55
 Symmetrizing basis deriv contribution to polar:
 IMax=3 JMax=2 DiffMx= 0.00D+00
 G2DrvN: will do     6 centers at a time, making    1 passes.
 Calling FoFCou, ICntrl=  3507 FMM=F I1Cent=   0 AccDes= 1.00D-12.
 End of G2Drv F.D. properties file   721 does not exist.
 End of G2Drv F.D. properties file   722 does not exist.
 End of G2Drv F.D. properties file   788 does not exist.
          IDoAtm=11111
          Differentiating once with respect to nuclear coordinates.
 Keep J ints in memory in canonical form, NReq=16773591.
          There are    18 degrees of freedom in the 1st order CPHF.  IDoFFX=6 NUNeed=     0.
     12 vectors produced by pass  0 Test12= 3.67D-15 5.56D-09 XBig12= 1.24D-01 2.48D-01.
 AX will form    12 AO Fock derivatives at one time.
     12 vectors produced by pass  1 Test12= 3.67D-15 5.56D-09 XBig12= 1.68D-02 8.29D-02.
     12 vectors produced by pass  2 Test12= 3.67D-15 5.56D-09 XBig12= 6.06D-04 5.33D-03.
     12 vectors produced by pass  3 Test12= 3.67D-15 5.56D-09 XBig12= 7.27D-06 6.85D-04.
     12 vectors produced by pass  4 Test12= 3.67D-15 5.56D-09 XBig12= 2.29D-08 4.17D-05.
      9 vectors produced by pass  5 Test12= 3.67D-15 5.56D-09 XBig12= 1.06D-11 6.31D-07.
      1 vectors produced by pass  6 Test12= 3.67D-15 5.56D-09 XBig12= 3.69D-15 9.80D-09.
 InvSVY:  IOpt=1 It=  1 EMax= 1.44D-15
 Solved reduced A of dimension    70 with    12 vectors.
 End of Minotr F.D. properties file   721 does not exist.
 End of Minotr F.D. properties file   722 does not exist.
 End of Minotr F.D. properties file   788 does not exist.
 Calling FoFJK, ICntrl=    100527 FMM=F ISym2X=0 I1Cent= 0 IOpClX= 0 NMat=1 NMatS=1 NMatT=0.
 -------------------------------------------------------------------
 Center     Atomic                   Forces (Hartrees/Bohr)
 Number     Number              X              Y              Z
 -------------------------------------------------------------------
      1        1          -0.001369938   -0.006222393    0.032544345
      2        1          -0.010912169    0.006831375    0.010614069
      3        8          -0.010551544    0.005538390    0.014972098
      4        6           0.006977190    0.006854911   -0.056266165
      5        8           0.015856462   -0.013002283   -0.001864348
 -------------------------------------------------------------------
 Cartesian Forces:  Max     0.056266165 RMS     0.019025979
 IRC-IRC-IRC-IRC-IRC-IRC-IRC-IRC-IRC-IRC-IRC-IRC-IRC-IRC-IRC-IRC-IRC-IRC
 Pt  3 Step number   1 out of a maximum of 666
 Modified Bulirsch-Stoer Extrapolation Cycles:
    EPS =    0.000010000000000
      PEZero:  N= 2 I= 1 D=  5.64D-04 Err=  1.89D-05
      PEZero:  N= 3 I= 2 D=  5.64D-04 Err=  1.26D-05
      PEZero:  N= 3 I= 1 D=  1.13D-03 Err=  4.53D-08
 Maximum DWI energy   std dev =  0.000009693 at pt    28
 Maximum DWI gradient std dev =  0.006847014 at pt    25
 Point Number:   3          Path Number:   1
   CHANGE IN THE REACTION COORDINATE =    0.10823
   NET REACTION COORDINATE UP TO THIS POINT =    0.32474
  # OF POINTS ALONG THE PATH =   3
  # OF STEPS =   1

 Calculating another point on the path.
 IRC-IRC-IRC-IRC-IRC-IRC-IRC-IRC-IRC-IRC-IRC-IRC-IRC-IRC-IRC-IRC-IRC-IRC
                          Input orientation:                          
 ---------------------------------------------------------------------
 Center     Atomic      Atomic             Coordinates (Angstroms)
 Number     Number       Type             X           Y           Z
 ---------------------------------------------------------------------
      1          1           0       -1.158412    0.808818    0.758262
      2          1           0       -0.835024    0.379769    1.442669
      3          8           0        0.819549   -0.783768    0.396082
      4          6           0       -0.049144    0.002701    0.171546
      5          8           0       -0.657075    0.706849   -0.663461
 ---------------------------------------------------------------------
                    Distance matrix (angstroms):
                    1          2          3          4          5
     1  H    0.000000
     2  H    0.870102   0.000000
     3  O    2.565119   2.277449   0.000000
     4  C    1.491488   1.541280   1.193138   0.000000
     5  O    1.510971   2.138792   2.350530   1.250056   0.000000
 Symmetry turned off by external request.
 Stoichiometry    CH2O2
 Framework group  C1[X(CH2O2)]
 Deg. of freedom     9
 Full point group                 C1      NOp   1
 Rotational constants (GHZ):          86.5186613          11.2072786           9.9220201
 Standard basis: 6-31+G(d,p) (6D, 7F)
    67 basis functions,   110 primitive gaussians,    67 cartesian basis functions
    12 alpha electrons       12 beta electrons
       nuclear repulsion energy        69.1040501473 Hartrees.
 NAtoms=    5 NActive=    5 NUniq=    5 SFac= 1.00D+00 NAtFMM=   60 NAOKFM=F Big=F
 Integral buffers will be    131072 words long.
 Raffenetti 2 integral format.
 Two-electron integral symmetry is turned off.
 One-electron integrals computed using PRISM.
 NBasis=    67 RedAO= T EigKep=  2.52D-03  NBF=    67
 NBsUse=    67 1.00D-06 EigRej= -1.00D+00 NBFU=    67
 Initial guess from the checkpoint file:  "H2CO2IRC_M1.chk"
 B after Tr=    -0.000739    0.000112    0.002266
         Rot=    1.000000   -0.000294   -0.000347   -0.000079 Ang=  -0.05 deg.
 ExpMin= 4.38D-02 ExpMax= 5.48D+03 ExpMxC= 8.25D+02 IAcc=3 IRadAn=         5 AccDes= 0.00D+00
 Harris functional with IExCor=  404 and IRadAn=       5 diagonalized for initial guess.
 HarFok:  IExCor=  404 AccDes= 0.00D+00 IRadAn=         5 IDoV= 1 UseB2=F ITyADJ=14
 ICtDFT=  3500011 ScaDFX=  1.000000  1.000000  1.000000  1.000000
 FoFCou: FMM=F IPFlag=           0 FMFlag=      100000 FMFlg1=           0
         NFxFlg=           0 DoJE=T BraDBF=F KetDBF=T FulRan=T
         wScrn=  0.000000 ICntrl=       500 IOpCl=  0 I1Cent=   200000004 NGrid=           0
         NMat0=    1 NMatS0=      1 NMatT0=    0 NMatD0=    1 NMtDS0=    0 NMtDT0=    0
 Symmetry not used in FoFCou.
 Keep J ints in memory in canonical form, NReq=16824991.
 Requested convergence on RMS density matrix=1.00D-08 within 128 cycles.
 Requested convergence on MAX density matrix=1.00D-06.
 Requested convergence on             energy=1.00D-06.
 No special actions if energy rises.
 EnCoef did     4 forward-backward iterations
 SCF Done:  E(RB-P86) =  -189.686238775     A.U. after   10 cycles
            NFock= 10  Conv=0.35D-08     -V/T= 2.0097
 QCSCF skips out because SCF is already converged.
 DoSCS=F DFT=T ScalE2(SS,OS)=  1.000000  1.000000
 Range of M.O.s used for correlation:     1    67
 NBasis=    67 NAE=    12 NBE=    12 NFC=     0 NFV=     0
 NROrb=     67 NOA=    12 NOB=    12 NVA=    55 NVB=    55
 Symmetrizing basis deriv contribution to polar:
 IMax=3 JMax=2 DiffMx= 0.00D+00
 G2DrvN: will do     6 centers at a time, making    1 passes.
 Calling FoFCou, ICntrl=  3507 FMM=F I1Cent=   0 AccDes= 1.00D-12.
 End of G2Drv F.D. properties file   721 does not exist.
 End of G2Drv F.D. properties file   722 does not exist.
 End of G2Drv F.D. properties file   788 does not exist.
          IDoAtm=11111
          Differentiating once with respect to nuclear coordinates.
 Keep J ints in memory in canonical form, NReq=16773591.
          There are    18 degrees of freedom in the 1st order CPHF.  IDoFFX=6 NUNeed=     0.
     12 vectors produced by pass  0 Test12= 3.67D-15 5.56D-09 XBig12= 1.12D-01 2.33D-01.
 AX will form    12 AO Fock derivatives at one time.
     12 vectors produced by pass  1 Test12= 3.67D-15 5.56D-09 XBig12= 1.78D-02 8.56D-02.
     12 vectors produced by pass  2 Test12= 3.67D-15 5.56D-09 XBig12= 6.82D-04 5.63D-03.
     12 vectors produced by pass  3 Test12= 3.67D-15 5.56D-09 XBig12= 6.94D-06 5.96D-04.
     12 vectors produced by pass  4 Test12= 3.67D-15 5.56D-09 XBig12= 2.25D-08 3.62D-05.
      9 vectors produced by pass  5 Test12= 3.67D-15 5.56D-09 XBig12= 9.56D-12 6.30D-07.
      1 vectors produced by pass  6 Test12= 3.67D-15 5.56D-09 XBig12= 4.51D-15 1.57D-08.
 InvSVY:  IOpt=1 It=  1 EMax= 1.11D-15
 Solved reduced A of dimension    70 with    12 vectors.
 End of Minotr F.D. properties file   721 does not exist.
 End of Minotr F.D. properties file   722 does not exist.
 End of Minotr F.D. properties file   788 does not exist.
 Calling FoFJK, ICntrl=    100527 FMM=F ISym2X=0 I1Cent= 0 IOpClX= 0 NMat=1 NMatS=1 NMatT=0.
 -------------------------------------------------------------------
 Center     Atomic                   Forces (Hartrees/Bohr)
 Number     Number              X              Y              Z
 -------------------------------------------------------------------
      1        1          -0.003156838   -0.005851051    0.037577367
      2        1          -0.012565584    0.007353822    0.014482245
      3        8          -0.012959223    0.006749922    0.018618220
      4        6           0.009834448    0.007548141   -0.069988133
      5        8           0.018847196   -0.015800834   -0.000689699
 -------------------------------------------------------------------
 Cartesian Forces:  Max     0.069988133 RMS     0.023231439
 IRC-IRC-IRC-IRC-IRC-IRC-IRC-IRC-IRC-IRC-IRC-IRC-IRC-IRC-IRC-IRC-IRC-IRC
 Pt  4 Step number   1 out of a maximum of 666
 Modified Bulirsch-Stoer Extrapolation Cycles:
    EPS =    0.000010000000000
      PEZero:  N= 2 I= 1 D=  5.64D-04 Err=  2.54D-05
      PEZero:  N= 3 I= 2 D=  5.64D-04 Err=  1.69D-05
      PEZero:  N= 3 I= 1 D=  1.13D-03 Err=  6.64D-08
 Maximum DWI energy   std dev =  0.000010606 at pt    19
 Maximum DWI gradient std dev =  0.006369855 at pt    17
 Point Number:   4          Path Number:   1
   CHANGE IN THE REACTION COORDINATE =    0.10823
   NET REACTION COORDINATE UP TO THIS POINT =    0.43297
  # OF POINTS ALONG THE PATH =   4
  # OF STEPS =   1

 Calculating another point on the path.
 IRC-IRC-IRC-IRC-IRC-IRC-IRC-IRC-IRC-IRC-IRC-IRC-IRC-IRC-IRC-IRC-IRC-IRC
                          Input orientation:                          
 ---------------------------------------------------------------------
 Center     Atomic      Atomic             Coordinates (Angstroms)
 Number     Number       Type             X           Y           Z
 ---------------------------------------------------------------------
      1          1           0       -1.162941    0.802796    0.801714
      2          1           0       -0.849543    0.387994    1.460603
      3          8           0        0.818574   -0.783261    0.397490
      4          6           0       -0.048092    0.003408    0.164504
      5          8           0       -0.655689    0.705674   -0.663454
 ---------------------------------------------------------------------
                    Distance matrix (angstroms):
                    1          2          3          4          5
     1  H    0.000000
     2  H    0.839294   0.000000
     3  O    2.570093   2.298840   0.000000
     4  C    1.512596   1.571656   1.193416   0.000000
     5  O    1.553529   2.156413   2.348613   1.244132   0.000000
 Symmetry turned off by external request.
 Stoichiometry    CH2O2
 Framework group  C1[X(CH2O2)]
 Deg. of freedom     9
 Full point group                 C1      NOp   1
 Rotational constants (GHZ):          84.2475773          11.2348326           9.9128984
 Standard basis: 6-31+G(d,p) (6D, 7F)
    67 basis functions,   110 primitive gaussians,    67 cartesian basis functions
    12 alpha electrons       12 beta electrons
       nuclear repulsion energy        69.0469789926 Hartrees.
 NAtoms=    5 NActive=    5 NUniq=    5 SFac= 1.00D+00 NAtFMM=   60 NAOKFM=F Big=F
 Integral buffers will be    131072 words long.
 Raffenetti 2 integral format.
 Two-electron integral symmetry is turned off.
 One-electron integrals computed using PRISM.
 NBasis=    67 RedAO= T EigKep=  2.47D-03  NBF=    67
 NBsUse=    67 1.00D-06 EigRej= -1.00D+00 NBFU=    67
 Initial guess from the checkpoint file:  "H2CO2IRC_M1.chk"
 B after Tr=    -0.000796    0.000148    0.002317
         Rot=    1.000000   -0.000293   -0.000346   -0.000078 Ang=  -0.05 deg.
 ExpMin= 4.38D-02 ExpMax= 5.48D+03 ExpMxC= 8.25D+02 IAcc=3 IRadAn=         5 AccDes= 0.00D+00
 Harris functional with IExCor=  404 and IRadAn=       5 diagonalized for initial guess.
 HarFok:  IExCor=  404 AccDes= 0.00D+00 IRadAn=         5 IDoV= 1 UseB2=F ITyADJ=14
 ICtDFT=  3500011 ScaDFX=  1.000000  1.000000  1.000000  1.000000
 FoFCou: FMM=F IPFlag=           0 FMFlag=      100000 FMFlg1=           0
         NFxFlg=           0 DoJE=T BraDBF=F KetDBF=T FulRan=T
         wScrn=  0.000000 ICntrl=       500 IOpCl=  0 I1Cent=   200000004 NGrid=           0
         NMat0=    1 NMatS0=      1 NMatT0=    0 NMatD0=    1 NMtDS0=    0 NMtDT0=    0
 Symmetry not used in FoFCou.
 Keep J ints in memory in canonical form, NReq=16824991.
 Requested convergence on RMS density matrix=1.00D-08 within 128 cycles.
 Requested convergence on MAX density matrix=1.00D-06.
 Requested convergence on             energy=1.00D-06.
 No special actions if energy rises.
 EnCoef did     4 forward-backward iterations
 SCF Done:  E(RB-P86) =  -189.691741409     A.U. after   10 cycles
            NFock= 10  Conv=0.28D-08     -V/T= 2.0096
 QCSCF skips out because SCF is already converged.
 DoSCS=F DFT=T ScalE2(SS,OS)=  1.000000  1.000000
 Range of M.O.s used for correlation:     1    67
 NBasis=    67 NAE=    12 NBE=    12 NFC=     0 NFV=     0
 NROrb=     67 NOA=    12 NOB=    12 NVA=    55 NVB=    55
 Symmetrizing basis deriv contribution to polar:
 IMax=3 JMax=2 DiffMx= 0.00D+00
 G2DrvN: will do     6 centers at a time, making    1 passes.
 Calling FoFCou, ICntrl=  3507 FMM=F I1Cent=   0 AccDes= 1.00D-12.
 End of G2Drv F.D. properties file   721 does not exist.
 End of G2Drv F.D. properties file   722 does not exist.
 End of G2Drv F.D. properties file   788 does not exist.
          IDoAtm=11111
          Differentiating once with respect to nuclear coordinates.
 Keep J ints in memory in canonical form, NReq=16773591.
          There are    18 degrees of freedom in the 1st order CPHF.  IDoFFX=6 NUNeed=     0.
     12 vectors produced by pass  0 Test12= 3.67D-15 5.56D-09 XBig12= 1.02D-01 2.12D-01.
 AX will form    12 AO Fock derivatives at one time.
     12 vectors produced by pass  1 Test12= 3.67D-15 5.56D-09 XBig12= 1.79D-02 8.52D-02.
     12 vectors produced by pass  2 Test12= 3.67D-15 5.56D-09 XBig12= 6.20D-04 5.07D-03.
     12 vectors produced by pass  3 Test12= 3.67D-15 5.56D-09 XBig12= 5.31D-06 4.84D-04.
     12 vectors produced by pass  4 Test12= 3.67D-15 5.56D-09 XBig12= 1.57D-08 2.79D-05.
      9 vectors produced by pass  5 Test12= 3.67D-15 5.56D-09 XBig12= 6.73D-12 5.27D-07.
      1 vectors produced by pass  6 Test12= 3.67D-15 5.56D-09 XBig12= 4.40D-15 1.62D-08.
 InvSVY:  IOpt=1 It=  1 EMax= 1.33D-15
 Solved reduced A of dimension    70 with    12 vectors.
 End of Minotr F.D. properties file   721 does not exist.
 End of Minotr F.D. properties file   722 does not exist.
 End of Minotr F.D. properties file   788 does not exist.
 Calling FoFJK, ICntrl=    100527 FMM=F ISym2X=0 I1Cent= 0 IOpClX= 0 NMat=1 NMatS=1 NMatT=0.
 -------------------------------------------------------------------
 Center     Atomic                   Forces (Hartrees/Bohr)
 Number     Number              X              Y              Z
 -------------------------------------------------------------------
      1        1          -0.005274972   -0.004448399    0.039300268
      2        1          -0.013014206    0.006893719    0.018185224
      3        8          -0.014728956    0.007635160    0.021321454
      4        6           0.012714988    0.007318948   -0.079730303
      5        8           0.020303146   -0.017399428    0.000923357
 -------------------------------------------------------------------
 Cartesian Forces:  Max     0.079730303 RMS     0.026022467
 IRC-IRC-IRC-IRC-IRC-IRC-IRC-IRC-IRC-IRC-IRC-IRC-IRC-IRC-IRC-IRC-IRC-IRC
 Pt  5 Step number   1 out of a maximum of 666
 Modified Bulirsch-Stoer Extrapolation Cycles:
    EPS =    0.000010000000000
      PEZero:  N= 2 I= 1 D=  5.64D-04 Err=  2.91D-05
      PEZero:  N= 3 I= 2 D=  5.64D-04 Err=  1.93D-05
      PEZero:  N= 3 I= 1 D=  1.13D-03 Err=  9.16D-08
 Maximum DWI energy   std dev =  0.000009542 at pt    29
 Maximum DWI gradient std dev =  0.005826004 at pt    25
 Point Number:   5          Path Number:   1
   CHANGE IN THE REACTION COORDINATE =    0.10821
   NET REACTION COORDINATE UP TO THIS POINT =    0.54118
  # OF POINTS ALONG THE PATH =   5
  # OF STEPS =   1

 Calculating another point on the path.
 IRC-IRC-IRC-IRC-IRC-IRC-IRC-IRC-IRC-IRC-IRC-IRC-IRC-IRC-IRC-IRC-IRC-IRC
                          Input orientation:                          
 ---------------------------------------------------------------------
 Center     Atomic      Atomic             Coordinates (Angstroms)
 Number     Number       Type             X           Y           Z
 ---------------------------------------------------------------------
      1          1           0       -1.169512    0.798881    0.843500
      2          1           0       -0.863331    0.394964    1.481338
      3          8           0        0.817547   -0.782730    0.398982
      4          6           0       -0.046837    0.004024    0.157104
      5          8           0       -0.654320    0.704488   -0.663334
 ---------------------------------------------------------------------
                    Distance matrix (angstroms):
                    1          2          3          4          5
     1  H    0.000000
     2  H    0.814697   0.000000
     3  O    2.578273   2.320303   0.000000
     4  C    1.537315   1.604086   1.193585   0.000000
     5  O    1.595268   2.176949   2.346641   1.238065   0.000000
 Symmetry turned off by external request.
 Stoichiometry    CH2O2
 Framework group  C1[X(CH2O2)]
 Deg. of freedom     9
 Full point group                 C1      NOp   1
 Rotational constants (GHZ):          81.9730310          11.2614571           9.9012264
 Standard basis: 6-31+G(d,p) (6D, 7F)
    67 basis functions,   110 primitive gaussians,    67 cartesian basis functions
    12 alpha electrons       12 beta electrons
       nuclear repulsion energy        68.9884937401 Hartrees.
 NAtoms=    5 NActive=    5 NUniq=    5 SFac= 1.00D+00 NAtFMM=   60 NAOKFM=F Big=F
 Integral buffers will be    131072 words long.
 Raffenetti 2 integral format.
 Two-electron integral symmetry is turned off.
 One-electron integrals computed using PRISM.
 NBasis=    67 RedAO= T EigKep=  2.41D-03  NBF=    67
 NBsUse=    67 1.00D-06 EigRej= -1.00D+00 NBFU=    67
 Initial guess from the checkpoint file:  "H2CO2IRC_M1.chk"
 B after Tr=    -0.000849    0.000183    0.002361
         Rot=    1.000000   -0.000291   -0.000344   -0.000078 Ang=  -0.05 deg.
 ExpMin= 4.38D-02 ExpMax= 5.48D+03 ExpMxC= 8.25D+02 IAcc=3 IRadAn=         5 AccDes= 0.00D+00
 Harris functional with IExCor=  404 and IRadAn=       5 diagonalized for initial guess.
 HarFok:  IExCor=  404 AccDes= 0.00D+00 IRadAn=         5 IDoV= 1 UseB2=F ITyADJ=14
 ICtDFT=  3500011 ScaDFX=  1.000000  1.000000  1.000000  1.000000
 FoFCou: FMM=F IPFlag=           0 FMFlag=      100000 FMFlg1=           0
         NFxFlg=           0 DoJE=T BraDBF=F KetDBF=T FulRan=T
         wScrn=  0.000000 ICntrl=       500 IOpCl=  0 I1Cent=   200000004 NGrid=           0
         NMat0=    1 NMatS0=      1 NMatT0=    0 NMatD0=    1 NMtDS0=    0 NMtDT0=    0
 Symmetry not used in FoFCou.
 Keep J ints in memory in canonical form, NReq=16824991.
 Requested convergence on RMS density matrix=1.00D-08 within 128 cycles.
 Requested convergence on MAX density matrix=1.00D-06.
 Requested convergence on             energy=1.00D-06.
 No special actions if energy rises.
 EnCoef did     4 forward-backward iterations
 SCF Done:  E(RB-P86) =  -189.697523185     A.U. after   10 cycles
            NFock= 10  Conv=0.22D-08     -V/T= 2.0095
 QCSCF skips out because SCF is already converged.
 DoSCS=F DFT=T ScalE2(SS,OS)=  1.000000  1.000000
 Range of M.O.s used for correlation:     1    67
 NBasis=    67 NAE=    12 NBE=    12 NFC=     0 NFV=     0
 NROrb=     67 NOA=    12 NOB=    12 NVA=    55 NVB=    55
 Symmetrizing basis deriv contribution to polar:
 IMax=3 JMax=2 DiffMx= 0.00D+00
 G2DrvN: will do     6 centers at a time, making    1 passes.
 Calling FoFCou, ICntrl=  3507 FMM=F I1Cent=   0 AccDes= 1.00D-12.
 End of G2Drv F.D. properties file   721 does not exist.
 End of G2Drv F.D. properties file   722 does not exist.
 End of G2Drv F.D. properties file   788 does not exist.
          IDoAtm=11111
          Differentiating once with respect to nuclear coordinates.
 Keep J ints in memory in canonical form, NReq=16773591.
          There are    18 degrees of freedom in the 1st order CPHF.  IDoFFX=6 NUNeed=     0.
     12 vectors produced by pass  0 Test12= 3.67D-15 5.56D-09 XBig12= 1.02D-01 1.90D-01.
 AX will form    12 AO Fock derivatives at one time.
     12 vectors produced by pass  1 Test12= 3.67D-15 5.56D-09 XBig12= 1.73D-02 8.25D-02.
     12 vectors produced by pass  2 Test12= 3.67D-15 5.56D-09 XBig12= 5.18D-04 4.93D-03.
     12 vectors produced by pass  3 Test12= 3.67D-15 5.56D-09 XBig12= 3.84D-06 4.36D-04.
     12 vectors produced by pass  4 Test12= 3.67D-15 5.56D-09 XBig12= 8.62D-09 2.62D-05.
     10 vectors produced by pass  5 Test12= 3.67D-15 5.56D-09 XBig12= 2.77D-12 3.67D-07.
      1 vectors produced by pass  6 Test12= 3.67D-15 5.56D-09 XBig12= 2.23D-15 1.20D-08.
 InvSVY:  IOpt=1 It=  1 EMax= 1.33D-15
 Solved reduced A of dimension    71 with    12 vectors.
 End of Minotr F.D. properties file   721 does not exist.
 End of Minotr F.D. properties file   722 does not exist.
 End of Minotr F.D. properties file   788 does not exist.
 Calling FoFJK, ICntrl=    100527 FMM=F ISym2X=0 I1Cent= 0 IOpClX= 0 NMat=1 NMatS=1 NMatT=0.
 -------------------------------------------------------------------
 Center     Atomic                   Forces (Hartrees/Bohr)
 Number     Number              X              Y              Z
 -------------------------------------------------------------------
      1        1          -0.007293559   -0.002566007    0.038536219
      2        1          -0.012574968    0.005835076    0.021212842
      3        8          -0.015909848    0.008224696    0.023130451
      4        6           0.015477426    0.006281416   -0.085467768
      5        8           0.020300949   -0.017775180    0.002588256
 -------------------------------------------------------------------
 Cartesian Forces:  Max     0.085467768 RMS     0.027521265
 IRC-IRC-IRC-IRC-IRC-IRC-IRC-IRC-IRC-IRC-IRC-IRC-IRC-IRC-IRC-IRC-IRC-IRC
 Pt  6 Step number   1 out of a maximum of 666
 Modified Bulirsch-Stoer Extrapolation Cycles:
    EPS =    0.000010000000000
      PEZero:  N= 2 I= 1 D=  5.64D-04 Err=  2.72D-05
      PEZero:  N= 3 I= 2 D=  5.64D-04 Err=  1.81D-05
      PEZero:  N= 3 I= 1 D=  1.13D-03 Err=  1.06D-07
 Maximum DWI energy   std dev =  0.000007531 at pt    33
 Maximum DWI gradient std dev =  0.004912865 at pt    25
 Point Number:   6          Path Number:   1
   CHANGE IN THE REACTION COORDINATE =    0.10821
   NET REACTION COORDINATE UP TO THIS POINT =    0.64939
  # OF POINTS ALONG THE PATH =   6
  # OF STEPS =   1

 Calculating another point on the path.
 IRC-IRC-IRC-IRC-IRC-IRC-IRC-IRC-IRC-IRC-IRC-IRC-IRC-IRC-IRC-IRC-IRC-IRC
                          Input orientation:                          
 ---------------------------------------------------------------------
 Center     Atomic      Atomic             Coordinates (Angstroms)
 Number     Number       Type             X           Y           Z
 ---------------------------------------------------------------------
      1          1           0       -1.177983    0.797010    0.883367
      2          1           0       -0.876277    0.400640    1.504637
      3          8           0        0.816464   -0.782171    0.400561
      4          6           0       -0.045353    0.004515    0.149397
      5          8           0       -0.653002    0.703321   -0.663110
 ---------------------------------------------------------------------
                    Distance matrix (angstroms):
                    1          2          3          4          5
     1  H    0.000000
     2  H    0.796312   0.000000
     3  O    2.589350   2.341666   0.000000
     4  C    1.565123   1.638300   1.193603   0.000000
     5  O    1.635840   2.200135   2.344656   1.231964   0.000000
 Symmetry turned off by external request.
 Stoichiometry    CH2O2
 Framework group  C1[X(CH2O2)]
 Deg. of freedom     9
 Full point group                 C1      NOp   1
 Rotational constants (GHZ):          79.7213080          11.2868543           9.8870559
 Standard basis: 6-31+G(d,p) (6D, 7F)
    67 basis functions,   110 primitive gaussians,    67 cartesian basis functions
    12 alpha electrons       12 beta electrons
       nuclear repulsion energy        68.9289896373 Hartrees.
 NAtoms=    5 NActive=    5 NUniq=    5 SFac= 1.00D+00 NAtFMM=   60 NAOKFM=F Big=F
 Integral buffers will be    131072 words long.
 Raffenetti 2 integral format.
 Two-electron integral symmetry is turned off.
 One-electron integrals computed using PRISM.
 NBasis=    67 RedAO= T EigKep=  2.35D-03  NBF=    67
 NBsUse=    67 1.00D-06 EigRej= -1.00D+00 NBFU=    67
 Initial guess from the checkpoint file:  "H2CO2IRC_M1.chk"
 B after Tr=    -0.000891    0.000213    0.002387
         Rot=    1.000000   -0.000287   -0.000339   -0.000077 Ang=  -0.05 deg.
 ExpMin= 4.38D-02 ExpMax= 5.48D+03 ExpMxC= 8.25D+02 IAcc=3 IRadAn=         5 AccDes= 0.00D+00
 Harris functional with IExCor=  404 and IRadAn=       5 diagonalized for initial guess.
 HarFok:  IExCor=  404 AccDes= 0.00D+00 IRadAn=         5 IDoV= 1 UseB2=F ITyADJ=14
 ICtDFT=  3500011 ScaDFX=  1.000000  1.000000  1.000000  1.000000
 FoFCou: FMM=F IPFlag=           0 FMFlag=      100000 FMFlg1=           0
         NFxFlg=           0 DoJE=T BraDBF=F KetDBF=T FulRan=T
         wScrn=  0.000000 ICntrl=       500 IOpCl=  0 I1Cent=   200000004 NGrid=           0
         NMat0=    1 NMatS0=      1 NMatT0=    0 NMatD0=    1 NMtDS0=    0 NMtDT0=    0
 Symmetry not used in FoFCou.
 Keep J ints in memory in canonical form, NReq=16824991.
 Requested convergence on RMS density matrix=1.00D-08 within 128 cycles.
 Requested convergence on MAX density matrix=1.00D-06.
 Requested convergence on             energy=1.00D-06.
 No special actions if energy rises.
 EnCoef did     3 forward-backward iterations
 SCF Done:  E(RB-P86) =  -189.703343903     A.U. after   10 cycles
            NFock= 10  Conv=0.18D-08     -V/T= 2.0095
 QCSCF skips out because SCF is already converged.
 DoSCS=F DFT=T ScalE2(SS,OS)=  1.000000  1.000000
 Range of M.O.s used for correlation:     1    67
 NBasis=    67 NAE=    12 NBE=    12 NFC=     0 NFV=     0
 NROrb=     67 NOA=    12 NOB=    12 NVA=    55 NVB=    55
 Symmetrizing basis deriv contribution to polar:
 IMax=3 JMax=2 DiffMx= 0.00D+00
 G2DrvN: will do     6 centers at a time, making    1 passes.
 Calling FoFCou, ICntrl=  3507 FMM=F I1Cent=   0 AccDes= 1.00D-12.
 End of G2Drv F.D. properties file   721 does not exist.
 End of G2Drv F.D. properties file   722 does not exist.
 End of G2Drv F.D. properties file   788 does not exist.
          IDoAtm=11111
          Differentiating once with respect to nuclear coordinates.
 Keep J ints in memory in canonical form, NReq=16773591.
          There are    18 degrees of freedom in the 1st order CPHF.  IDoFFX=6 NUNeed=     0.
     12 vectors produced by pass  0 Test12= 3.67D-15 5.56D-09 XBig12= 1.01D-01 1.68D-01.
 AX will form    12 AO Fock derivatives at one time.
     12 vectors produced by pass  1 Test12= 3.67D-15 5.56D-09 XBig12= 1.61D-02 7.83D-02.
     12 vectors produced by pass  2 Test12= 3.67D-15 5.56D-09 XBig12= 4.29D-04 4.73D-03.
     12 vectors produced by pass  3 Test12= 3.67D-15 5.56D-09 XBig12= 2.77D-06 4.90D-04.
     12 vectors produced by pass  4 Test12= 3.67D-15 5.56D-09 XBig12= 4.89D-09 1.80D-05.
     10 vectors produced by pass  5 Test12= 3.67D-15 5.56D-09 XBig12= 1.51D-12 2.90D-07.
      1 vectors produced by pass  6 Test12= 3.67D-15 5.56D-09 XBig12= 1.08D-15 1.00D-08.
 InvSVY:  IOpt=1 It=  1 EMax= 1.78D-15
 Solved reduced A of dimension    71 with    12 vectors.
 End of Minotr F.D. properties file   721 does not exist.
 End of Minotr F.D. properties file   722 does not exist.
 End of Minotr F.D. properties file   788 does not exist.
 Calling FoFJK, ICntrl=    100527 FMM=F ISym2X=0 I1Cent= 0 IOpClX= 0 NMat=1 NMatS=1 NMatT=0.
 -------------------------------------------------------------------
 Center     Atomic                   Forces (Hartrees/Bohr)
 Number     Number              X              Y              Z
 -------------------------------------------------------------------
      1        1          -0.008852145   -0.000765531    0.036416567
      2        1          -0.011696368    0.004655491    0.023133449
      3        8          -0.016577541    0.008545411    0.024208583
      4        6           0.018022432    0.004645808   -0.087756071
      5        8           0.019103623   -0.017081178    0.003997472
 -------------------------------------------------------------------
 Cartesian Forces:  Max     0.087756071 RMS     0.027991495
 IRC-IRC-IRC-IRC-IRC-IRC-IRC-IRC-IRC-IRC-IRC-IRC-IRC-IRC-IRC-IRC-IRC-IRC
 Pt  7 Step number   1 out of a maximum of 666
 Modified Bulirsch-Stoer Extrapolation Cycles:
    EPS =    0.000010000000000
      PEZero:  N= 2 I= 1 D=  5.64D-04 Err=  2.06D-05
      PEZero:  N= 3 I= 2 D=  5.64D-04 Err=  1.37D-05
      PEZero:  N= 3 I= 1 D=  1.13D-03 Err=  9.85D-08
 Maximum DWI energy   std dev =  0.000005348 at pt    33
 Maximum DWI gradient std dev =  0.003939655 at pt    47
 Point Number:   7          Path Number:   1
   CHANGE IN THE REACTION COORDINATE =    0.10822
   NET REACTION COORDINATE UP TO THIS POINT =    0.75761
  # OF POINTS ALONG THE PATH =   7
  # OF STEPS =   1

 Calculating another point on the path.
 IRC-IRC-IRC-IRC-IRC-IRC-IRC-IRC-IRC-IRC-IRC-IRC-IRC-IRC-IRC-IRC-IRC-IRC
                          Input orientation:                          
 ---------------------------------------------------------------------
 Center     Atomic      Atomic             Coordinates (Angstroms)
 Number     Number       Type             X           Y           Z
 ---------------------------------------------------------------------
      1          1           0       -1.188008    0.796874    0.921391
      2          1           0       -0.888440    0.405212    1.529877
      3          8           0        0.815330   -0.781588    0.402226
      4          6           0       -0.043620    0.004851    0.141450
      5          8           0       -0.651769    0.702207   -0.662799
 ---------------------------------------------------------------------
                    Distance matrix (angstroms):
                    1          2          3          4          5
     1  H    0.000000
     2  H    0.783195   0.000000
     3  O    2.602775   2.362821   0.000000
     4  C    1.595379   1.673840   1.193434   0.000000
     5  O    1.675164   2.225319   2.342713   1.225956   0.000000
 Symmetry turned off by external request.
 Stoichiometry    CH2O2
 Framework group  C1[X(CH2O2)]
 Deg. of freedom     9
 Full point group                 C1      NOp   1
 Rotational constants (GHZ):          77.5187045          11.3107189           9.8705164
 Standard basis: 6-31+G(d,p) (6D, 7F)
    67 basis functions,   110 primitive gaussians,    67 cartesian basis functions
    12 alpha electrons       12 beta electrons
       nuclear repulsion energy        68.8693821950 Hartrees.
 NAtoms=    5 NActive=    5 NUniq=    5 SFac= 1.00D+00 NAtFMM=   60 NAOKFM=F Big=F
 Integral buffers will be    131072 words long.
 Raffenetti 2 integral format.
 Two-electron integral symmetry is turned off.
 One-electron integrals computed using PRISM.
 NBasis=    67 RedAO= T EigKep=  2.29D-03  NBF=    67
 NBsUse=    67 1.00D-06 EigRej= -1.00D+00 NBFU=    67
 Initial guess from the checkpoint file:  "H2CO2IRC_M1.chk"
 B after Tr=    -0.000922    0.000238    0.002392
         Rot=    1.000000   -0.000281   -0.000332   -0.000075 Ang=  -0.05 deg.
 ExpMin= 4.38D-02 ExpMax= 5.48D+03 ExpMxC= 8.25D+02 IAcc=3 IRadAn=         5 AccDes= 0.00D+00
 Harris functional with IExCor=  404 and IRadAn=       5 diagonalized for initial guess.
 HarFok:  IExCor=  404 AccDes= 0.00D+00 IRadAn=         5 IDoV= 1 UseB2=F ITyADJ=14
 ICtDFT=  3500011 ScaDFX=  1.000000  1.000000  1.000000  1.000000
 FoFCou: FMM=F IPFlag=           0 FMFlag=      100000 FMFlg1=           0
         NFxFlg=           0 DoJE=T BraDBF=F KetDBF=T FulRan=T
         wScrn=  0.000000 ICntrl=       500 IOpCl=  0 I1Cent=   200000004 NGrid=           0
         NMat0=    1 NMatS0=      1 NMatT0=    0 NMatD0=    1 NMtDS0=    0 NMtDT0=    0
 Symmetry not used in FoFCou.
 Keep J ints in memory in canonical form, NReq=16824991.
 Requested convergence on RMS density matrix=1.00D-08 within 128 cycles.
 Requested convergence on MAX density matrix=1.00D-06.
 Requested convergence on             energy=1.00D-06.
 No special actions if energy rises.
 SCF Done:  E(RB-P86) =  -189.709051286     A.U. after   10 cycles
            NFock= 10  Conv=0.16D-08     -V/T= 2.0095
 QCSCF skips out because SCF is already converged.
 DoSCS=F DFT=T ScalE2(SS,OS)=  1.000000  1.000000
 Range of M.O.s used for correlation:     1    67
 NBasis=    67 NAE=    12 NBE=    12 NFC=     0 NFV=     0
 NROrb=     67 NOA=    12 NOB=    12 NVA=    55 NVB=    55
 Symmetrizing basis deriv contribution to polar:
 IMax=3 JMax=2 DiffMx= 0.00D+00
 G2DrvN: will do     6 centers at a time, making    1 passes.
 Calling FoFCou, ICntrl=  3507 FMM=F I1Cent=   0 AccDes= 1.00D-12.
 End of G2Drv F.D. properties file   721 does not exist.
 End of G2Drv F.D. properties file   722 does not exist.
 End of G2Drv F.D. properties file   788 does not exist.
          IDoAtm=11111
          Differentiating once with respect to nuclear coordinates.
 Keep J ints in memory in canonical form, NReq=16773591.
          There are    18 degrees of freedom in the 1st order CPHF.  IDoFFX=6 NUNeed=     0.
     12 vectors produced by pass  0 Test12= 3.67D-15 5.56D-09 XBig12= 1.00D-01 1.48D-01.
 AX will form    12 AO Fock derivatives at one time.
     12 vectors produced by pass  1 Test12= 3.67D-15 5.56D-09 XBig12= 1.47D-02 7.33D-02.
     12 vectors produced by pass  2 Test12= 3.67D-15 5.56D-09 XBig12= 3.60D-04 4.40D-03.
     12 vectors produced by pass  3 Test12= 3.67D-15 5.56D-09 XBig12= 2.10D-06 5.09D-04.
     12 vectors produced by pass  4 Test12= 3.67D-15 5.56D-09 XBig12= 5.62D-09 1.80D-05.
     10 vectors produced by pass  5 Test12= 3.67D-15 5.56D-09 XBig12= 4.30D-12 5.28D-07.
      1 vectors produced by pass  6 Test12= 3.67D-15 5.56D-09 XBig12= 1.66D-15 8.49D-09.
 InvSVY:  IOpt=1 It=  1 EMax= 8.88D-16
 Solved reduced A of dimension    71 with    12 vectors.
 End of Minotr F.D. properties file   721 does not exist.
 End of Minotr F.D. properties file   722 does not exist.
 End of Minotr F.D. properties file   788 does not exist.
 Calling FoFJK, ICntrl=    100527 FMM=F ISym2X=0 I1Cent= 0 IOpClX= 0 NMat=1 NMatS=1 NMatT=0.
 -------------------------------------------------------------------
 Center     Atomic                   Forces (Hartrees/Bohr)
 Number     Number              X              Y              Z
 -------------------------------------------------------------------
      1        1          -0.009812334    0.000635371    0.033824943
      2        1          -0.010721709    0.003665546    0.023859564
      3        8          -0.016805739    0.008614033    0.024757585
      4        6           0.020289699    0.002652636   -0.087431576
      5        8           0.017050083   -0.015567585    0.004989484
 -------------------------------------------------------------------
 Cartesian Forces:  Max     0.087431576 RMS     0.027723628
 IRC-IRC-IRC-IRC-IRC-IRC-IRC-IRC-IRC-IRC-IRC-IRC-IRC-IRC-IRC-IRC-IRC-IRC
 Reaction path inflection point has been passed.
   Previous lowest Hessian eigenvalue=   -0.0008530009
   Current lowest Hessian eigenvalue =    0.0014848624
 Pt  8 Step number   1 out of a maximum of 666
 Modified Bulirsch-Stoer Extrapolation Cycles:
    EPS =    0.000010000000000
      PEZero:  N= 2 I= 1 D=  5.64D-04 Err=  1.71D-05
      PEZero:  N= 3 I= 2 D=  5.64D-04 Err=  1.14D-05
      PEZero:  N= 3 I= 1 D=  1.13D-03 Err=  7.55D-08
 Maximum DWI energy   std dev =  0.000003506 at pt    33
 Maximum DWI gradient std dev =  0.003041809 at pt    47
 Point Number:   8          Path Number:   1
   CHANGE IN THE REACTION COORDINATE =    0.10823
   NET REACTION COORDINATE UP TO THIS POINT =    0.86584
  # OF POINTS ALONG THE PATH =   8
  # OF STEPS =   1

 Calculating another point on the path.
 IRC-IRC-IRC-IRC-IRC-IRC-IRC-IRC-IRC-IRC-IRC-IRC-IRC-IRC-IRC-IRC-IRC-IRC
                          Input orientation:                          
 ---------------------------------------------------------------------
 Center     Atomic      Atomic             Coordinates (Angstroms)
 Number     Number       Type             X           Y           Z
 ---------------------------------------------------------------------
      1          1           0       -1.199195    0.798068    0.957881
      2          1           0       -0.899981    0.408978    1.556353
      3          8           0        0.814149   -0.780987    0.403980
      4          6           0       -0.041622    0.005003    0.133321
      5          8           0       -0.650655    0.701178   -0.662423
 ---------------------------------------------------------------------
                    Distance matrix (angstroms):
                    1          2          3          4          5
     1  H    0.000000
     2  H    0.774008   0.000000
     3  O    2.617971   2.383742   0.000000
     4  C    1.627521   1.710262   1.193055   0.000000
     5  O    1.713379   2.251780   2.340872   1.220160   0.000000
 Symmetry turned off by external request.
 Stoichiometry    CH2O2
 Framework group  C1[X(CH2O2)]
 Deg. of freedom     9
 Full point group                 C1      NOp   1
 Rotational constants (GHZ):          75.3825624          11.3327425           9.8516769
 Standard basis: 6-31+G(d,p) (6D, 7F)
    67 basis functions,   110 primitive gaussians,    67 cartesian basis functions
    12 alpha electrons       12 beta electrons
       nuclear repulsion energy        68.8103614393 Hartrees.
 NAtoms=    5 NActive=    5 NUniq=    5 SFac= 1.00D+00 NAtFMM=   60 NAOKFM=F Big=F
 Integral buffers will be    131072 words long.
 Raffenetti 2 integral format.
 Two-electron integral symmetry is turned off.
 One-electron integrals computed using PRISM.
 NBasis=    67 RedAO= T EigKep=  2.22D-03  NBF=    67
 NBsUse=    67 1.00D-06 EigRej= -1.00D+00 NBFU=    67
 Initial guess from the checkpoint file:  "H2CO2IRC_M1.chk"
 B after Tr=    -0.000943    0.000258    0.002382
         Rot=    1.000000   -0.000274   -0.000324   -0.000073 Ang=  -0.05 deg.
 ExpMin= 4.38D-02 ExpMax= 5.48D+03 ExpMxC= 8.25D+02 IAcc=3 IRadAn=         5 AccDes= 0.00D+00
 Harris functional with IExCor=  404 and IRadAn=       5 diagonalized for initial guess.
 HarFok:  IExCor=  404 AccDes= 0.00D+00 IRadAn=         5 IDoV= 1 UseB2=F ITyADJ=14
 ICtDFT=  3500011 ScaDFX=  1.000000  1.000000  1.000000  1.000000
 FoFCou: FMM=F IPFlag=           0 FMFlag=      100000 FMFlg1=           0
         NFxFlg=           0 DoJE=T BraDBF=F KetDBF=T FulRan=T
         wScrn=  0.000000 ICntrl=       500 IOpCl=  0 I1Cent=   200000004 NGrid=           0
         NMat0=    1 NMatS0=      1 NMatT0=    0 NMatD0=    1 NMtDS0=    0 NMtDT0=    0
 Symmetry not used in FoFCou.
 Keep J ints in memory in canonical form, NReq=16824991.
 Requested convergence on RMS density matrix=1.00D-08 within 128 cycles.
 Requested convergence on MAX density matrix=1.00D-06.
 Requested convergence on             energy=1.00D-06.
 No special actions if energy rises.
 SCF Done:  E(RB-P86) =  -189.714551048     A.U. after   10 cycles
            NFock= 10  Conv=0.14D-08     -V/T= 2.0095
 QCSCF skips out because SCF is already converged.
 DoSCS=F DFT=T ScalE2(SS,OS)=  1.000000  1.000000
 Range of M.O.s used for correlation:     1    67
 NBasis=    67 NAE=    12 NBE=    12 NFC=     0 NFV=     0
 NROrb=     67 NOA=    12 NOB=    12 NVA=    55 NVB=    55
 Symmetrizing basis deriv contribution to polar:
 IMax=3 JMax=2 DiffMx= 0.00D+00
 G2DrvN: will do     6 centers at a time, making    1 passes.
 Calling FoFCou, ICntrl=  3507 FMM=F I1Cent=   0 AccDes= 1.00D-12.
 End of G2Drv F.D. properties file   721 does not exist.
 End of G2Drv F.D. properties file   722 does not exist.
 End of G2Drv F.D. properties file   788 does not exist.
          IDoAtm=11111
          Differentiating once with respect to nuclear coordinates.
 Keep J ints in memory in canonical form, NReq=16773591.
          There are    18 degrees of freedom in the 1st order CPHF.  IDoFFX=6 NUNeed=     0.
     12 vectors produced by pass  0 Test12= 3.67D-15 5.56D-09 XBig12= 1.00D-01 1.30D-01.
 AX will form    12 AO Fock derivatives at one time.
     12 vectors produced by pass  1 Test12= 3.67D-15 5.56D-09 XBig12= 1.31D-02 6.79D-02.
     12 vectors produced by pass  2 Test12= 3.67D-15 5.56D-09 XBig12= 3.06D-04 4.03D-03.
     12 vectors produced by pass  3 Test12= 3.67D-15 5.56D-09 XBig12= 1.69D-06 4.90D-04.
     12 vectors produced by pass  4 Test12= 3.67D-15 5.56D-09 XBig12= 6.38D-09 1.91D-05.
     10 vectors produced by pass  5 Test12= 3.67D-15 5.56D-09 XBig12= 6.81D-12 6.16D-07.
      1 vectors produced by pass  6 Test12= 3.67D-15 5.56D-09 XBig12= 2.61D-15 1.22D-08.
 InvSVY:  IOpt=1 It=  1 EMax= 1.33D-15
 Solved reduced A of dimension    71 with    12 vectors.
 End of Minotr F.D. properties file   721 does not exist.
 End of Minotr F.D. properties file   722 does not exist.
 End of Minotr F.D. properties file   788 does not exist.
 Calling FoFJK, ICntrl=    100527 FMM=F ISym2X=0 I1Cent= 0 IOpClX= 0 NMat=1 NMatS=1 NMatT=0.
 -------------------------------------------------------------------
 Center     Atomic                   Forces (Hartrees/Bohr)
 Number     Number              X              Y              Z
 -------------------------------------------------------------------
      1        1          -0.010232573    0.001586200    0.031201622
      2        1          -0.009807827    0.002947770    0.023612885
      3        8          -0.016654281    0.008441263    0.024953474
      4        6           0.022239370    0.000519887   -0.085306050
      5        8           0.014455311   -0.013495120    0.005538069
 -------------------------------------------------------------------
 Cartesian Forces:  Max     0.085306050 RMS     0.026966938
 IRC-IRC-IRC-IRC-IRC-IRC-IRC-IRC-IRC-IRC-IRC-IRC-IRC-IRC-IRC-IRC-IRC-IRC
 Pt  9 Step number   1 out of a maximum of 666
 Modified Bulirsch-Stoer Extrapolation Cycles:
    EPS =    0.000010000000000
      PEZero:  N= 2 I= 1 D=  5.64D-04 Err=  1.35D-05
      PEZero:  N= 3 I= 2 D=  5.64D-04 Err=  8.97D-06
      PEZero:  N= 3 I= 1 D=  1.13D-03 Err=  5.11D-08
 Maximum DWI energy   std dev =  0.000002183 at pt    33
 Maximum DWI gradient std dev =  0.002324897 at pt    47
 Point Number:   9          Path Number:   1
   CHANGE IN THE REACTION COORDINATE =    0.10824
   NET REACTION COORDINATE UP TO THIS POINT =    0.97408
  # OF POINTS ALONG THE PATH =   9
  # OF STEPS =   1

 Calculating another point on the path.
 IRC-IRC-IRC-IRC-IRC-IRC-IRC-IRC-IRC-IRC-IRC-IRC-IRC-IRC-IRC-IRC-IRC-IRC
                          Input orientation:                          
 ---------------------------------------------------------------------
 Center     Atomic      Atomic             Coordinates (Angstroms)
 Number     Number       Type             X           Y           Z
 ---------------------------------------------------------------------
      1          1           0       -1.211208    0.800233    0.993175
      2          1           0       -0.911077    0.412214    1.583506
      3          8           0        0.812933   -0.780376    0.405829
      4          6           0       -0.039347    0.004953    0.125050
      5          8           0       -0.649689    0.700265   -0.662001
 ---------------------------------------------------------------------
                    Distance matrix (angstroms):
                    1          2          3          4          5
     1  H    0.000000
     2  H    0.767546   0.000000
     3  O    2.634472   2.404455   0.000000
     4  C    1.661134   1.747245   1.192459   0.000000
     5  O    1.750687   2.278946   2.339193   1.214671   0.000000
 Symmetry turned off by external request.
 Stoichiometry    CH2O2
 Framework group  C1[X(CH2O2)]
 Deg. of freedom     9
 Full point group                 C1      NOp   1
 Rotational constants (GHZ):          73.3209746          11.3525750           9.8304826
 Standard basis: 6-31+G(d,p) (6D, 7F)
    67 basis functions,   110 primitive gaussians,    67 cartesian basis functions
    12 alpha electrons       12 beta electrons
       nuclear repulsion energy        68.7519440532 Hartrees.
 NAtoms=    5 NActive=    5 NUniq=    5 SFac= 1.00D+00 NAtFMM=   60 NAOKFM=F Big=F
 Integral buffers will be    131072 words long.
 Raffenetti 2 integral format.
 Two-electron integral symmetry is turned off.
 One-electron integrals computed using PRISM.
 NBasis=    67 RedAO= T EigKep=  2.15D-03  NBF=    67
 NBsUse=    67 1.00D-06 EigRej= -1.00D+00 NBFU=    67
 Initial guess from the checkpoint file:  "H2CO2IRC_M1.chk"
 B after Tr=    -0.000958    0.000275    0.002363
         Rot=    1.000000   -0.000266   -0.000314   -0.000071 Ang=  -0.05 deg.
 ExpMin= 4.38D-02 ExpMax= 5.48D+03 ExpMxC= 8.25D+02 IAcc=3 IRadAn=         5 AccDes= 0.00D+00
 Harris functional with IExCor=  404 and IRadAn=       5 diagonalized for initial guess.
 HarFok:  IExCor=  404 AccDes= 0.00D+00 IRadAn=         5 IDoV= 1 UseB2=F ITyADJ=14
 ICtDFT=  3500011 ScaDFX=  1.000000  1.000000  1.000000  1.000000
 FoFCou: FMM=F IPFlag=           0 FMFlag=      100000 FMFlg1=           0
         NFxFlg=           0 DoJE=T BraDBF=F KetDBF=T FulRan=T
[...]
 QCSCF skips out because SCF is already converged.
 DoSCS=F DFT=T ScalE2(SS,OS)=  1.000000  1.000000
 Range of M.O.s used for correlation:     1    67
 NBasis=    67 NAE=    12 NBE=    12 NFC=     0 NFV=     0
 NROrb=     67 NOA=    12 NOB=    12 NVA=    55 NVB=    55
 Symmetrizing basis deriv contribution to polar:
 IMax=3 JMax=2 DiffMx= 0.00D+00
 G2DrvN: will do     6 centers at a time, making    1 passes.
 Calling FoFCou, ICntrl=  3507 FMM=F I1Cent=   0 AccDes= 1.00D-12.
 End of G2Drv F.D. properties file   721 does not exist.
 End of G2Drv F.D. properties file   722 does not exist.
 End of G2Drv F.D. properties file   788 does not exist.
          IDoAtm=11111
          Differentiating once with respect to nuclear coordinates.
 Keep J ints in memory in canonical form, NReq=16773591.
          There are    18 degrees of freedom in the 1st order CPHF.  IDoFFX=6 NUNeed=     0.
     12 vectors produced by pass  0 Test12= 3.67D-15 5.56D-09 XBig12= 1.03D-01 1.53D-01.
 AX will form    12 AO Fock derivatives at one time.
     12 vectors produced by pass  1 Test12= 3.67D-15 5.56D-09 XBig12= 3.02D-02 7.30D-02.
     12 vectors produced by pass  2 Test12= 3.67D-15 5.56D-09 XBig12= 5.42D-04 5.33D-03.
     12 vectors produced by pass  3 Test12= 3.67D-15 5.56D-09 XBig12= 4.23D-06 4.80D-04.
     12 vectors produced by pass  4 Test12= 3.67D-15 5.56D-09 XBig12= 1.31D-08 3.07D-05.
     10 vectors produced by pass  5 Test12= 3.67D-15 5.56D-09 XBig12= 7.80D-12 7.78D-07.
      1 vectors produced by pass  6 Test12= 3.67D-15 5.56D-09 XBig12= 5.88D-15 1.83D-08.
 InvSVY:  IOpt=1 It=  1 EMax= 9.99D-16
 Solved reduced A of dimension    71 with    12 vectors.
 End of Minotr F.D. properties file   721 does not exist.
 End of Minotr F.D. properties file   722 does not exist.
 End of Minotr F.D. properties file   788 does not exist.
 Calling FoFJK, ICntrl=    100527 FMM=F ISym2X=0 I1Cent= 0 IOpClX= 0 NMat=1 NMatS=1 NMatT=0.
 -------------------------------------------------------------------
 Center     Atomic                   Forces (Hartrees/Bohr)
 Number     Number              X              Y              Z
 -------------------------------------------------------------------
      1        1           0.000231728   -0.000028381   -0.000740110
      2        1          -0.000095470    0.000006553    0.000327044
      3        8          -0.002298299    0.002973294   -0.004526587
      4        6          -0.001767719    0.000693327    0.003541104
      5        8           0.003929759   -0.003644793    0.001398550
 -------------------------------------------------------------------
 Cartesian Forces:  Max     0.004526587 RMS     0.002340362
 IRC-IRC-IRC-IRC-IRC-IRC-IRC-IRC-IRC-IRC-IRC-IRC-IRC-IRC-IRC-IRC-IRC-IRC
 Pt 88 Step number   1 out of a maximum of 666
 Modified Bulirsch-Stoer Extrapolation Cycles:
    EPS =    0.000010000000000
      PEZero:  N= 2 I= 1 D=  5.64D-04 Err=  8.74D-06
 Maximum DWI energy   std dev =  0.000000208 at pt    30
 Maximum DWI gradient std dev =  0.009073053 at pt    36
 Point Number:  26          Path Number:   2
   CHANGE IN THE REACTION COORDINATE =    0.10825
   NET REACTION COORDINATE UP TO THIS POINT =    2.81330
  # OF POINTS ALONG THE PATH =  88
  # OF STEPS =   1

 Calculating another point on the path.
 IRC-IRC-IRC-IRC-IRC-IRC-IRC-IRC-IRC-IRC-IRC-IRC-IRC-IRC-IRC-IRC-IRC-IRC
                          Input orientation:                          
 ---------------------------------------------------------------------
 Center     Atomic      Atomic             Coordinates (Angstroms)
 Number     Number       Type             X           Y           Z
 ---------------------------------------------------------------------
      1          1           0       -1.369876    1.237605   -0.342658
      2          1           0       -0.617756    0.212855    1.367569
      3          8           0        0.830030   -0.769357    0.293441
      4          6           0       -0.102385   -0.004441    0.401758
      5          8           0       -0.627978    0.681297   -0.659435
 ---------------------------------------------------------------------
                    Distance matrix (angstroms):
                    1          2          3          4          5
     1  H    0.000000
     2  H    2.130886   0.000000
     3  O    3.045014   2.052943   0.000000
     4  C    1.924414   1.116072   1.210879   0.000000
     5  O    0.979919   2.080453   2.266750   1.368435   0.000000
 Symmetry turned off by external request.
 Stoichiometry    CH2O2
 Framework group  C1[X(CH2O2)]
 Deg. of freedom     9
 Full point group                 C1      NOp   1
 Rotational constants (GHZ):          85.4522332          11.3392214          10.0108196
 Standard basis: 6-31+G(d,p) (6D, 7F)
    67 basis functions,   110 primitive gaussians,    67 cartesian basis functions
    12 alpha electrons       12 beta electrons
       nuclear repulsion energy        69.0300781468 Hartrees.
 NAtoms=    5 NActive=    5 NUniq=    5 SFac= 1.00D+00 NAtFMM=   60 NAOKFM=F Big=F
 Integral buffers will be    131072 words long.
 Raffenetti 2 integral format.
 Two-electron integral symmetry is turned off.
 One-electron integrals computed using PRISM.
 NBasis=    67 RedAO= T EigKep=  4.13D-03  NBF=    67
 NBsUse=    67 1.00D-06 EigRej= -1.00D+00 NBFU=    67
 Initial guess from the checkpoint file:  "H2CO2IRC_M1.chk"
 B after Tr=     0.000039    0.000029   -0.000274
         Rot=    1.000000    0.000152    0.000181    0.000040 Ang=   0.03 deg.
 ExpMin= 4.38D-02 ExpMax= 5.48D+03 ExpMxC= 8.25D+02 IAcc=3 IRadAn=         5 AccDes= 0.00D+00
 Harris functional with IExCor=  404 and IRadAn=       5 diagonalized for initial guess.
 HarFok:  IExCor=  404 AccDes= 0.00D+00 IRadAn=         5 IDoV= 1 UseB2=F ITyADJ=14
 ICtDFT=  3500011 ScaDFX=  1.000000  1.000000  1.000000  1.000000
 FoFCou: FMM=F IPFlag=           0 FMFlag=      100000 FMFlg1=           0
         NFxFlg=           0 DoJE=T BraDBF=F KetDBF=T FulRan=T
         wScrn=  0.000000 ICntrl=       500 IOpCl=  0 I1Cent=   200000004 NGrid=           0
         NMat0=    1 NMatS0=      1 NMatT0=    0 NMatD0=    1 NMtDS0=    0 NMtDT0=    0
 Symmetry not used in FoFCou.
 Keep J ints in memory in canonical form, NReq=16824991.
 Requested convergence on RMS density matrix=1.00D-08 within 128 cycles.
 Requested convergence on MAX density matrix=1.00D-06.
 Requested convergence on             energy=1.00D-06.
 No special actions if energy rises.
 SCF Done:  E(RB-P86) =  -189.772843405     A.U. after    9 cycles
            NFock=  9  Conv=0.51D-08     -V/T= 2.0100
 QCSCF skips out because SCF is already converged.
 DoSCS=F DFT=T ScalE2(SS,OS)=  1.000000  1.000000
 Range of M.O.s used for correlation:     1    67
 NBasis=    67 NAE=    12 NBE=    12 NFC=     0 NFV=     0
 NROrb=     67 NOA=    12 NOB=    12 NVA=    55 NVB=    55
 Symmetrizing basis deriv contribution to polar:
 IMax=3 JMax=2 DiffMx= 0.00D+00
 G2DrvN: will do     6 centers at a time, making    1 passes.
 Calling FoFCou, ICntrl=  3507 FMM=F I1Cent=   0 AccDes= 1.00D-12.
 End of G2Drv F.D. properties file   721 does not exist.
 End of G2Drv F.D. properties file   722 does not exist.
 End of G2Drv F.D. properties file   788 does not exist.
          IDoAtm=11111
          Differentiating once with respect to nuclear coordinates.
 Keep J ints in memory in canonical form, NReq=16773591.
          There are    18 degrees of freedom in the 1st order CPHF.  IDoFFX=6 NUNeed=     0.
     12 vectors produced by pass  0 Test12= 3.67D-15 5.56D-09 XBig12= 1.03D-01 1.53D-01.
 AX will form    12 AO Fock derivatives at one time.
     12 vectors produced by pass  1 Test12= 3.67D-15 5.56D-09 XBig12= 3.02D-02 7.27D-02.
     12 vectors produced by pass  2 Test12= 3.67D-15 5.56D-09 XBig12= 5.50D-04 5.24D-03.
     12 vectors produced by pass  3 Test12= 3.67D-15 5.56D-09 XBig12= 4.20D-06 4.69D-04.
     12 vectors produced by pass  4 Test12= 3.67D-15 5.56D-09 XBig12= 1.31D-08 3.09D-05.
     10 vectors produced by pass  5 Test12= 3.67D-15 5.56D-09 XBig12= 7.87D-12 7.78D-07.
      1 vectors produced by pass  6 Test12= 3.67D-15 5.56D-09 XBig12= 5.80D-15 1.77D-08.
 InvSVY:  IOpt=1 It=  1 EMax= 1.22D-15
 Solved reduced A of dimension    71 with    12 vectors.
 End of Minotr F.D. properties file   721 does not exist.
 End of Minotr F.D. properties file   722 does not exist.
 End of Minotr F.D. properties file   788 does not exist.
 Calling FoFJK, ICntrl=    100527 FMM=F ISym2X=0 I1Cent= 0 IOpClX= 0 NMat=1 NMatS=1 NMatT=0.
 -------------------------------------------------------------------
 Center     Atomic                   Forces (Hartrees/Bohr)
 Number     Number              X              Y              Z
 -------------------------------------------------------------------
      1        1           0.000159362   -0.000067609   -0.000297108
      2        1          -0.000032961    0.000001698    0.000115095
      3        8          -0.000875056    0.001111449   -0.001630872
      4        6          -0.000599986    0.000219593    0.001270329
      5        8           0.001348642   -0.001265132    0.000542555
 -------------------------------------------------------------------
 Cartesian Forces:  Max     0.001630872 RMS     0.000837817
 IRC-IRC-IRC-IRC-IRC-IRC-IRC-IRC-IRC-IRC-IRC-IRC-IRC-IRC-IRC-IRC-IRC-IRC
 Pt 89 Step number   1 out of a maximum of 666
 Modified Bulirsch-Stoer Extrapolation Cycles:
    EPS =    0.000010000000000
      PEZero:  N= 2 I= 1 D=  5.64D-04 Err=  8.82D-07
 Maximum DWI energy   std dev =  0.000000093 at pt    21
 Maximum DWI gradient std dev =  0.018902565 at pt    37
 Point Number:  27          Path Number:   2
   CHANGE IN THE REACTION COORDINATE =    0.10828
   NET REACTION COORDINATE UP TO THIS POINT =    2.92158
  # OF POINTS ALONG THE PATH =  89
  # OF STEPS =   1

 Calculating another point on the path.
 PES minimum detected within a second-order step.
 Calculation of REVERSE path complete.
 Reaction path calculation complete.
 
                           ----------------------------
                           !      IRC Parameters      !
                           ! (Angstroms and Degrees)  !
 --------------------------                            --------------------------
 ! Name  Definition               TS            Reactant        Product         !
 --------------------------------------------------------------------------------
 ! X1    X                      -1.1571         -1.3698        -2.049           !
 ! Y1    Y                       0.8491          1.2375         1.1228          !
 ! Z1    Z                       0.5758         -0.3428         2.697           !
 ! X2    X                      -0.7743         -0.6177        -1.6509          !
 ! Y2    Y                       0.3401          0.2128         0.6819          !
 ! Z2    Z                       1.3905          1.3676         3.1564          !
 ! X3    X                       0.8232          0.83           0.8007          !
 ! Y3    Y                      -0.7857         -0.7694        -0.7795          !
 ! Z3    Z                       0.3911          0.2934         0.4475          !
 ! X4    X                      -0.0519         -0.1024         0.0845          !
 ! Y4    Y                      -0.0006         -0.0045        -0.0412          !
 ! Z4    Z                       0.1965          0.4018        -0.1336          !
 ! X5    X                      -0.6625         -0.628         -0.631           !
 ! Y5    Y                       0.7112          0.6813         0.6967          !
 ! Z5    Z                      -0.6624         -0.6594        -0.716           !
 --------------------------------------------------------------------------------
 Energies reported relative to the TS energy of        -189.674084
 --------------------------------------------------------------------------
    Summary of reaction path following
 --------------------------------------------------------------------------
                        Energy    RxCoord     X1        Y1        Z1
   1                   -0.09876  -2.92158  -1.36978   1.23754  -0.34277
   2                   -0.09858  -2.81330  -1.37275   1.23653  -0.32718
   3                   -0.09822  -2.70505  -1.37528   1.23500  -0.31103
   4                   -0.09770  -2.59683  -1.37710   1.23263  -0.29372
   5                   -0.09701  -2.48863  -1.37797   1.22905  -0.27470
   6                   -0.09614  -2.38047  -1.37755   1.22390  -0.25352
   7                   -0.09507  -2.27233  -1.37553   1.21682  -0.22987
   8                   -0.09378  -2.16420  -1.37161   1.20756  -0.20366
   9                   -0.09222  -2.05606  -1.36558   1.19596  -0.17506
                           X2        Y2        Z2        X3        Y3
   1                   -0.61774   0.21284   1.36758   0.83002  -0.76935
   2                   -0.61549   0.21262   1.36015   0.83335  -0.77366
   3                   -0.61328   0.21250   1.35245   0.83656  -0.77787
   4                   -0.61112   0.21253   1.34428   0.83955  -0.78189
   5                   -0.60902   0.21272   1.33558   0.84220  -0.78564
   6                   -0.60694   0.21305   1.32635   0.84440  -0.78898
   7                   -0.60490   0.21350   1.31675   0.84603  -0.79182
   8                   -0.60292   0.21404   1.30697   0.84701  -0.79405
   9                   -0.60110   0.21470   1.29727   0.84732  -0.79563
                          Z3        X4       
   1                    0.29344  -0.10237
   2                    0.30000  -0.09890
   3                    0.30657  -0.09541
   4                    0.31317  -0.09191
   5                    0.31978  -0.08845
   6                    0.32633  -0.08504
   7                    0.33275  -0.08170
   8                    0.33892  -0.07846
   9                    0.34474  -0.07534
 --------------------------------------------------------------------------
 
 Total number of points:                   89
 Total number of gradient calculations:    90
 Total number of Hessian calculations:     90
 IRC-IRC-IRC-IRC-IRC-IRC-IRC-IRC-IRC-IRC-IRC-IRC-IRC-IRC-IRC-IRC-IRC-IRC
                          Input orientation:                          
 ---------------------------------------------------------------------
 Center     Atomic      Atomic             Coordinates (Angstroms)
 Number     Number       Type             X           Y           Z
 ---------------------------------------------------------------------
      1          1           0       -1.369876    1.237605   -0.342658
      2          1           0       -0.617756    0.212855    1.367569
      3          8           0        0.830030   -0.769357    0.293441
      4          6           0       -0.102385   -0.004441    0.401758
      5          8           0       -0.627978    0.681297   -0.659435
 ---------------------------------------------------------------------
                    Distance matrix (angstroms):
                    1          2          3          4          5
     1  H    0.000000
     2  H    2.130886   0.000000
     3  O    3.045014   2.052943   0.000000
     4  C    1.924414   1.116072   1.210879   0.000000
     5  O    0.979919   2.080453   2.266750   1.368435   0.000000
 Symmetry turned off by external request.
 Stoichiometry    CH2O2
 Framework group  C1[X(CH2O2)]
 Deg. of freedom     9
 Full point group                 C1      NOp   1
 Rotational constants (GHZ):          85.4522332          11.3392214          10.0108196

 **********************************************************************

            Population analysis using the SCF Density.

 **********************************************************************

 Alpha  occ. eigenvalues --  -18.87557 -18.81731 -10.06418  -1.03186  -0.95987
 Alpha  occ. eigenvalues --   -0.59349  -0.53546  -0.41495  -0.41009  -0.36640
 Alpha  occ. eigenvalues --   -0.30365  -0.25741
 Alpha virt. eigenvalues --   -0.06321  -0.02788   0.01957   0.04346   0.05608
 Alpha virt. eigenvalues --    0.11506   0.14028   0.15336   0.18313   0.20345
 Alpha virt. eigenvalues --    0.21980   0.22843   0.23487   0.25976   0.28007
 Alpha virt. eigenvalues --    0.29880   0.37970   0.58661   0.67532   0.71514
 Alpha virt. eigenvalues --    0.80786   0.85517   1.03390   1.04216   1.04877
 Alpha virt. eigenvalues --    1.14049   1.14617   1.18738   1.24745   1.26276
 Alpha virt. eigenvalues --    1.35215   1.43412   1.46484   1.50505   1.58754
 Alpha virt. eigenvalues --    1.71760   1.72038   1.76172   1.94267   2.02128
 Alpha virt. eigenvalues --    2.08348   2.28963   2.34370   2.35900   2.46490
 Alpha virt. eigenvalues --    2.60522   2.63783   2.75242   2.90248   3.03222
 Alpha virt. eigenvalues --    3.20669   3.43909   4.02835   4.03800   4.34436
          Condensed to atoms (all electrons):
               1          2          3          4          5
     1  H    0.442283   0.001217   0.011270   0.037248   0.168986
     2  H    0.001217   0.652130  -0.062453   0.412783  -0.125543
     3  O    0.011270  -0.062453   8.085719   0.434011  -0.102406
     4  C    0.037248   0.412783   0.434011   4.783656   0.084934
     5  O    0.168986  -0.125543  -0.102406   0.084934   8.316117
 Mulliken charges:
               1
     1  H    0.338997
     2  H    0.121866
     3  O   -0.366142
     4  C    0.247368
     5  O   -0.342089
 Sum of Mulliken charges =  -0.00000
 Mulliken charges with hydrogens summed into heavy atoms:
               1
     3  O   -0.366142
     4  C    0.369233
     5  O   -0.003092
 APT charges:
               1
     1  H    0.626270
     2  H    0.343509
     3  O   -0.321626
     4  C   -0.140766
     5  O   -0.507387
 Sum of APT charges =  -0.00000
 APT charges with hydrogens summed into heavy atoms:
               1
     3  O   -0.321626
     4  C    0.202743
     5  O    0.118883
 Electronic spatial extent (au):  <R**2>=            138.2243
 Charge=             -0.0000 electrons
 Dipole moment (field-independent basis, Debye):
    X=             -3.0135    Y=              2.2416    Z=              1.3664  Tot=              3.9966
 Quadrupole moment (field-independent basis, Debye-Ang):
   XX=            -16.0229   YY=            -16.7910   ZZ=            -17.9546
   XY=             -0.9272   XZ=             -0.9303   YZ=              0.9210
 Traceless Quadrupole moment (field-independent basis, Debye-Ang):
   XX=              0.9000   YY=              0.1318   ZZ=             -1.0318
   XY=             -0.9272   XZ=             -0.9303   YZ=              0.9210
 Octapole moment (field-independent basis, Debye-Ang**2):
  XXX=             -4.0281  YYY=              2.8354  ZZZ=             -0.1291  XYY=             -4.1964
  XXY=              5.0401  XXZ=             -1.5678  XZZ=              0.0968  YZZ=             -0.2806
  YYZ=             -1.4470  XYZ=              1.0507
 Hexadecapole moment (field-independent basis, Debye-Ang**3):
 XXXX=            -54.0714 YYYY=            -52.9146 ZZZZ=            -47.3122 XXXY=             15.3092
 XXXZ=             -8.1975 YYYX=             16.5467 YYYZ=             11.2239 ZZZX=            -10.7687
 ZZZY=             12.3823 XXYY=            -14.3498 XXZZ=            -18.3197 YYZZ=            -18.0857
 XXYZ=              2.8317 YYXZ=             -2.2248 ZZXY=              7.2220
 N-N= 6.903007814678D+01 E-N=-5.835920251939D+02  KE= 1.879018387873D+02
  Exact polarizability:   0.000   0.000   0.000   0.000   0.000   0.000
 Approx polarizability:  42.386 -20.386  37.125   2.031  -4.454  30.910

 This type of calculation cannot be archived.


 HE THAT IS UNAWARE OF HIS IGNORANCE WILL BE MISLED BY HIS KNOWLEDGE.

                                        -- WHATLEY
 Job cpu time:       0 days  1 hours 29 minutes 57.0 seconds.
 Elapsed time:       0 days  0 hours  6 minutes 20.0 seconds.
 File lengths (MBytes):  RWF=      7 Int=      0 D2E=      0 Chk=      3 Scr=      1
 Normal termination of Gaussian 16 at Sat Aug  1 02:16:52 2020.
