 Entering Gaussian System, Link 0=g16
 Initial command:
 /opt/g16/l1.exe "/scratch/547/Gau-68510.inp" -scrdir="/scratch/547/"
 Entering Link 1 = /opt/g16/l1.exe PID=     68511.
  
 Copyright (c) 1988-2017, Gaussian, Inc.  All Rights Reserved.
  
 This is part of the Gaussian(R) 16 program.  It is based on
 the Gaussian(R) 09 system (copyright 2009, Gaussian, Inc.),
 the Gaussian(R) 03 system (copyright 2003, Gaussian, Inc.),
 the Gaussian(R) 98 system (copyright 1998, Gaussian, Inc.),
 the Gaussian(R) 94 system (copyright 1995, Gaussian, Inc.),
 the Gaussian 92(TM) system (copyright 1992, Gaussian, Inc.),
 the Gaussian 90(TM) system (copyright 1990, Gaussian, Inc.),
 the Gaussian 88(TM) system (copyright 1988, Gaussian, Inc.),
 the Gaussian 86(TM) system (copyright 1986, Carnegie Mellon
 University), and the Gaussian 82(TM) system (copyright 1983,
 Carnegie Mellon University). Gaussian is a federally registered
 trademark of Gaussian, Inc.
  
 This software contains proprietary and confidential information,
 including trade secrets, belonging to Gaussian, Inc.
  
 This software is provided under written license and may be
 used, copied, transmitted, or stored only in accord with that
 written license.
  
 The following legend is applicable only to US Government
 contracts under FAR:
  
                    RESTRICTED RIGHTS LEGEND
  
 Use, reproduction and disclosure by the US Government is
 subject to restrictions as set forth in subparagraphs (a)
 and (c) of the Commercial Computer Software - Restricted
 Rights clause in FAR 52.227-19.
  
 Gaussian, Inc.
 340 Quinnipiac St., Bldg. 40, Wallingford CT 06492
  
  
 ---------------------------------------------------------------
 Warning -- This program may not be used in any manner that
 competes with the business of Gaussian, Inc. or will provide
 assistance to any competitor of Gaussian, Inc.  The licensee
 of this program is prohibited from giving any competitor of
 Gaussian, Inc. access to this program.  By using this program,
 the user acknowledges that Gaussian, Inc. is engaged in the
 business of creating and licensing software in the field of
 computational chemistry and represents and warrants to the
 licensee that it is not a competitor of Gaussian, Inc. and that
 it will not use this program in any manner prohibited above.
 ---------------------------------------------------------------
  

 Cite this work as:
 Gaussian 16, Revision B.01,
 M. J. Frisch, G. W. Trucks, H. B. Schlegel, G. E. Scuseria, 
 M. A. Robb, J. R. Cheeseman, G. Scalmani, V. Barone, 
 G. A. Petersson, H. Nakatsuji, X. Li, M. Caricato, A. V. Marenich, 
 J. Bloino, B. G. Janesko, R. Gomperts, B. Mennucci, H. P. Hratchian, 
 J. V. Ortiz, A. F. Izmaylov, J. L. Sonnenberg, D. Williams-Young, 
 F. Ding, F. Lipparini, F. Egidi, J. Goings, B. Peng, A. Petrone, 
 T. Henderson, D. Ranasinghe, V. G. Zakrzewski, J. Gao, N. Rega, 
 G. Zheng, W. Liang, M. Hada, M. Ehara, K. Toyota, R. Fukuda, 
 J. Hasegawa, M. Ishida, T. Nakajima, Y. Honda, O. Kitao, H. Nakai, 
 T. Vreven, K. Throssell, J. A. Montgomery, Jr., J. E. Peralta, 
 F. Ogliaro, M. J. Bearpark, J. J. Heyd, E. N. Brothers, K. N. Kudin, 
 V. N. Staroverov, T. A. Keith, R. Kobayashi, J. Normand, 
 K. Raghavachari, A. P. Rendell, J. C. Burant, S. S. Iyengar, 
 J. Tomasi, M. Cossi, J. M. Millam, M. Klene, C. Adamo, R. Cammi, 
 J. W. Ochterski, R. L. Martin, K. Morokuma, O. Farkas, 
 J. B. Foresman, and D. J. Fox, Gaussian, Inc., Wallingford CT, 2016.
 
 ******************************************
 Gaussian 16:  ES64L-G16RevB.01 20-Dec-2017
                15-Apr-2020 
 ******************************************
 %nprocshared=16
 Will use up to   16 processors via shared memory.
 %mem=24GB
 %chk=dairc1-testf.chk
 ----------------------------------------------------------------------
 # M062X/ChkBasis NoSymm SCF=(NoVarAcc,XQC) Int=(Grid=Ultrafine,acc2e=1
 1) Geom=AllCheck Guess=Read IRC=(Forward,CalcAll,Phase=(1,6),MaxPoints
 =300,StepSize=5)
 ----------------------------------------------------------------------
 1/10=4,18=10,22=1,26=4,29=7,38=1,39=5,42=300,44=3,71=1,101=1,102=6,172=1/1,23;
 2/12=2,15=1,29=1,40=1/2;
 3/5=7,6=2,11=2,14=-4,25=1,27=11,30=1,67=1,71=2,74=-55,75=-5,116=-2,140=1/1,2,3;
 4/5=1/1;
 5/5=2,8=3,13=1,38=6,87=11/2,8;
 8/6=4,10=90,11=11,87=11/1;
 11/6=1,8=1,9=11,15=111,16=1,31=1,87=11/1,2,10;
 10/6=1,13=1,31=1,87=11/2;
 6/7=2,8=2,9=2,10=2,18=1,28=1,87=11/1;
 7/10=1,25=1,30=1,87=11/1,2,3,16;
 1/10=4,18=10,22=1,26=4,39=5,42=300,44=3,71=1,101=1,102=6/23(2);
 2/15=1,29=1/2;
 99/5=20/99;
 2/15=1,29=1/2;
 3/5=7,6=1,11=2,14=-2,25=1,27=11,30=1,71=2,74=-55,75=-5,82=7,140=1/1,2,3;
 4/5=5,16=3,69=1/1;
 5/5=2,8=3,13=1,38=1,87=11/2,8;
 8/6=4,10=90,11=11,87=11/1;
 11/6=1,8=1,9=11,15=111,16=1,31=1,87=11/1,2,10;
 10/6=1,13=1,31=1,87=11/2;
 7/10=1,25=1,30=1,87=11/1,2,3,16;
 1/10=4,18=10,22=1,26=4,39=5,42=300,44=3,71=1,101=1,102=6/23(-8);
 2/15=1,29=1/2;
 6/7=2,8=2,9=2,10=2,18=1,19=2,28=1,87=11/1;
 99/5=20/99;
 Structure from the checkpoint file:  "dairc1-testf.chk"
 --------------------------------------------------------------
 Geometrical optimization for a DA reaction C2H4+C4H6 --> C6H10
 --------------------------------------------------------------
 Charge =  0 Multiplicity = 1
 Redundant internal coordinates found in file.  (old form).
 C,0,1.1481306431,1.2918300063,2.3207023291
 C,0,2.5086288961,1.347002839,2.5184452902
 C,0,3.208733885,2.5662806619,2.4896726725
 C,0,2.5662330245,3.7615406689,2.2624164278
 C,0,1.0850687677,3.8052953448,3.9582303788
 C,0,0.3979443453,2.6086116317,3.9864674658
 H,0,0.6125945656,0.3639944316,2.4713192826
 H,0,3.0191705961,0.4722999686,2.9018189636
 H,0,4.2291309064,2.5795228322,2.8520918437
 H,0,3.1002136609,4.6963403322,2.3690812209
 H,0,1.8774203932,3.9941723935,4.6661044336
 H,0,-0.6058637032,2.5495789113,3.5882762629
 H,0,0.6488996261,1.8546100544,4.7165938468
 H,0,0.6216906288,4.687459048,3.5378266702
 H,0,1.6875232298,3.8097104044,1.636538826
 H,0,0.6506595646,2.0039475212,1.6791533855
 Recover connectivity data from disk.
 IRC-IRC-IRC-IRC-IRC-IRC-IRC-IRC-IRC-IRC-IRC-IRC-IRC-IRC-IRC-IRC-IRC-IRC
 ------------------------------------------------------------------------
 INPUT DATA FOR L123
 ------------------------------------------------------------------------
 GENERAL PARAMETERS:
 Rxn path following direction = Forward
 Maximum points per path      = 300
 Step size                    =   0.050 bohr
 Integration scheme           = HPC                                 
    Redo corrector integration= Yes                                 
    DWI Weight Power          =  2
    DWI will use Hessian update vectors when possible.
    Max correction cycles     =  20
 Initial Hessian              = CalcFC
 Hessian evaluation           = Analytic at all predictor steps
                              = Update at all corrector steps
 Hessian updating method      = Bofill                              
 ------------------------------------------------------------------------
 IRC-IRC-IRC-IRC-IRC-IRC-IRC-IRC-IRC-IRC-IRC-IRC-IRC-IRC-IRC-IRC-IRC-IRC
                          Input orientation:                          
 ---------------------------------------------------------------------
 Center     Atomic      Atomic             Coordinates (Angstroms)
 Number     Number       Type             X           Y           Z
 ---------------------------------------------------------------------
      1          6           0        1.148131    1.291830    2.320702
      2          6           0        2.508629    1.347003    2.518445
      3          6           0        3.208734    2.566281    2.489673
      4          6           0        2.566233    3.761541    2.262416
      5          6           0        1.085069    3.805295    3.958230
      6          6           0        0.397944    2.608612    3.986467
      7          1           0        0.612595    0.363994    2.471319
      8          1           0        3.019171    0.472300    2.901819
      9          1           0        4.229131    2.579523    2.852092
     10          1           0        3.100214    4.696340    2.369081
     11          1           0        1.877420    3.994172    4.666104
     12          1           0       -0.605864    2.549579    3.588276
     13          1           0        0.648900    1.854610    4.716594
     14          1           0        0.621691    4.687459    3.537827
     15          1           0        1.687523    3.809710    1.636539
     16          1           0        0.650660    2.003948    1.679153
 ---------------------------------------------------------------------
                    Distance matrix (angstroms):
                    1          2          3          4          5
     1  C    0.000000
     2  C    1.375900   0.000000
     3  C    2.428757   1.406276   0.000000
     4  C    2.848488   2.428757   1.375899   0.000000
     5  C    3.000497   3.184762   2.863874   2.252010   0.000000
     6  C    2.251992   2.863867   3.184764   3.000512   1.380213
     7  H    1.081833   2.136229   3.404459   3.924750   3.778451
     8  H    2.123703   1.082928   2.142558   3.381286   3.995699
     9  H    3.381285   2.142558   1.082928   2.123703   3.551223
    10  H    3.924750   3.404459   2.136229   1.081833   2.716646
    11  H    3.651771   3.466752   2.923718   2.511234   1.079158
    12  H    2.503033   3.505823   3.969681   3.645402   2.138444
    13  H    2.511225   2.923716   3.466757   3.651786   2.137880
    14  H    3.645384   3.969675   3.505826   2.503046   1.081513
    15  H    2.664347   2.741697   2.141970   1.079895   2.398588
    16  H    1.079895   2.141970   2.741697   2.664348   2.937304
                    6          7          8          9         10
     6  C    0.000000
     7  H    2.716626   0.000000
     8  H    3.551213   2.447176   0.000000
     9  H    3.995703   4.258273   2.430404   0.000000
    10  H    3.778466   4.996791   4.258274   2.447176   0.000000
    11  H    2.137881   4.426631   4.101205   3.289744   2.695288
    12  H    1.081514   2.740258   4.234051   4.890811   4.453092
    13  H    1.079158   2.695276   3.289738   4.101210   4.426645
    14  H    2.138445   4.453074   4.890806   4.234059   2.740278
    15  H    2.937315   3.704766   3.809531   3.074199   1.821655
    16  H    2.398579   1.821654   3.074199   3.809531   3.704766
                   11         12         13         14         15
    11  H    0.000000
    12  H    3.068430   0.000000
    13  H    2.467699   1.824969   0.000000
    14  H    1.824970   2.465759   3.068431   0.000000
    15  H    3.041111   3.264481   3.793138   2.349753   0.000000
    16  H    3.793127   2.349748   3.041110   3.264466   2.082710
                   16
    16  H    0.000000
 Symmetry turned off by external request.
 Stoichiometry    C6H10
 Framework group  C1[X(C6H10)]
 Deg. of freedom    42
 Full point group                 C1      NOp   1
 Rotational constants (GHZ):           4.3811163           3.5293930           2.3019056
 Basis read from chk: "dairc1-testf.chk" (5D, 7F)
 Pseudo-potential data read from chk file.
   114 basis functions,   224 primitive gaussians,   114 cartesian basis functions
    23 alpha electrons       23 beta electrons
       nuclear repulsion energy       225.5323325021 Hartrees.
 NAtoms=   16 NActive=   16 NUniq=   16 SFac= 1.00D+00 NAtFMM=   60 NAOKFM=F Big=F
 Integral buffers will be    131072 words long.
 Raffenetti 2 integral format.
 Two-electron integral symmetry is turned off.
 One-electron integrals computed using PRISM.
   1 Symmetry operations used in ECPInt.
 ECPInt:  NShTT=    3081 NPrTT=   11790 LenC2=    3049 LenP2D=    9034.
 LDataN:  DoStor=T MaxTD1= 2 Len=   12
 NBasis=   114 RedAO= T EigKep=  8.37D-05  NBF=   114
 NBsUse=   114 1.00D-06 EigRej= -1.00D+00 NBFU=   114
 Initial guess from the checkpoint file:  "dairc1-testf.chk"
 B after Tr=     3.341113    4.900758    5.571998
         Rot=    0.269790    0.250331    0.927756    0.061775 Ang= 148.70 deg.
 Requested convergence on RMS density matrix=1.00D-08 within  32 cycles.
 Requested convergence on MAX density matrix=1.00D-06.
 Requested convergence on             energy=1.00D-06.
 No special actions if energy rises.
 SCF Done:  E(RM062X) =  -234.433257572     A.U. after    5 cycles
            NFock=  5  Conv=0.47D-08     -V/T= 2.0046
 QCSCF skips out because SCF is already converged.
 DoSCS=F DFT=T ScalE2(SS,OS)=  1.000000  1.000000
 Range of M.O.s used for correlation:     1   114
 NBasis=   114 NAE=    23 NBE=    23 NFC=     0 NFV=     0
 NROrb=    114 NOA=    23 NOB=    23 NVA=    91 NVB=    91

 **** Warning!!: The largest alpha MO coefficient is  0.30727468D+02

   1 Symmetry operations used in ECPInt.
 ECPInt:  NShTT=    3081 NPrTT=   11790 LenC2=    3049 LenP2D=    9034.
 LDataN:  DoStor=T MaxTD1= 3 Len=   28
 Symmetrizing basis deriv contribution to polar:
 IMax=3 JMax=2 DiffMx= 0.00D+00
 G2DrvN: will do    17 centers at a time, making    1 passes.
 Calling FoFCou, ICntrl=  3107 FMM=F I1Cent=   0 AccDes= 1.00D-11.
 End of G2Drv F.D. properties file   721 does not exist.
 End of G2Drv F.D. properties file   722 does not exist.
 End of G2Drv F.D. properties file   788 does not exist.
          IDoAtm=1111111111111111
          Differentiating once with respect to nuclear coordinates.
 Keep R1 ints in memory in canonical form, NReq=36494925.
          There are    51 degrees of freedom in the 1st order CPHF.  IDoFFX=6 NUNeed=     0.
     45 vectors produced by pass  0 Test12= 4.10D-15 1.96D-09 XBig12= 7.28D-02 9.74D-02.
 AX will form    45 AO Fock derivatives at one time.
     45 vectors produced by pass  1 Test12= 4.10D-15 1.96D-09 XBig12= 7.43D-03 1.94D-02.
     45 vectors produced by pass  2 Test12= 4.10D-15 1.96D-09 XBig12= 8.36D-05 1.49D-03.
     45 vectors produced by pass  3 Test12= 4.10D-15 1.96D-09 XBig12= 4.27D-07 1.05D-04.
     45 vectors produced by pass  4 Test12= 4.10D-15 1.96D-09 XBig12= 1.40D-09 4.68D-06.
     45 vectors produced by pass  5 Test12= 4.10D-15 1.96D-09 XBig12= 3.62D-12 2.48D-07.
     16 vectors produced by pass  6 Test12= 4.10D-15 1.96D-09 XBig12= 1.12D-14 1.39D-08.
 InvSVY:  IOpt=1 It=  1 EMax= 1.67D-16
 Solved reduced A of dimension   286 with    51 vectors.
 End of Minotr F.D. properties file   721 does not exist.
 End of Minotr F.D. properties file   722 does not exist.
 End of Minotr F.D. properties file   788 does not exist.

 **********************************************************************

            Population analysis using the SCF Density.

 **********************************************************************

 Alpha  occ. eigenvalues --  -10.54609 -10.54608 -10.54011 -10.53928 -10.53580
 Alpha  occ. eigenvalues --  -10.53510  -0.91703  -0.84819  -0.81765  -0.71161
 Alpha  occ. eigenvalues --   -0.66626  -0.59905  -0.57238  -0.54162  -0.50170
 Alpha  occ. eigenvalues --   -0.47766  -0.47542  -0.43142  -0.42111  -0.41198
 Alpha  occ. eigenvalues --   -0.40434  -0.27991  -0.27822
 Alpha virt. eigenvalues --    0.01214   0.04267   0.07813   0.09714   0.10729
 Alpha virt. eigenvalues --    0.12839   0.13488   0.13554   0.14848   0.15317
 Alpha virt. eigenvalues --    0.17087   0.18391   0.22503   0.22938   0.23097
 Alpha virt. eigenvalues --    0.24765   0.26325   0.27349   0.27892   0.27983
 Alpha virt. eigenvalues --    0.28372   0.30763   0.34662   0.35762   0.36251
 Alpha virt. eigenvalues --    0.36943   0.38138   0.40554   0.43243   0.44455
 Alpha virt. eigenvalues --    0.45897   0.46413   0.46514   0.47148   0.48034
 Alpha virt. eigenvalues --    0.48548   0.50179   0.52653   0.54222   0.54278
 Alpha virt. eigenvalues --    0.57798   0.57836   0.59159   0.60947   0.63285
 Alpha virt. eigenvalues --    0.64055   0.67956   0.69263   0.70316   0.78998
 Alpha virt. eigenvalues --    0.82378   1.41810   1.45748   1.47729   1.48314
 Alpha virt. eigenvalues --    1.51665   1.53693   1.54969   1.56104   1.57248
 Alpha virt. eigenvalues --    1.58551   1.58722   1.59967   1.61311   1.62252
 Alpha virt. eigenvalues --    1.63202   1.67314   1.67373   1.71943   1.78291
 Alpha virt. eigenvalues --    1.83632   1.83840   1.94733   2.01416   2.05028
 Alpha virt. eigenvalues --    2.33898   2.35825   2.36784   2.41930   2.43895
 Alpha virt. eigenvalues --    2.47691   2.53894   2.60028   2.68694   2.78493
 Alpha virt. eigenvalues --   21.41447  21.63477  21.74093  22.00018  22.10574
 Alpha virt. eigenvalues --   22.26692
          Condensed to atoms (all electrons):
               1          2          3          4          5          6
     1  C    5.275667   0.579778  -0.103916  -0.011847  -0.065673   0.082996
     2  C    0.579778   4.958150   0.479383  -0.103920  -0.072896  -0.029376
     3  C   -0.103916   0.479383   4.958195   0.579820  -0.029369  -0.072889
     4  C   -0.011847  -0.103920   0.579820   5.275564   0.082987  -0.065659
     5  C   -0.065673  -0.072896  -0.029369   0.082987   5.290162   0.532121
     6  C    0.082996  -0.029376  -0.072889  -0.065659   0.532121   5.290203
     7  H    0.358763  -0.025507   0.015501   0.002058   0.005935  -0.010859
     8  H   -0.041826   0.377865  -0.042465   0.006081  -0.001251  -0.001512
     9  H    0.006082  -0.042452   0.377847  -0.041824  -0.001511  -0.001251
    10  H    0.002059   0.015503  -0.025517   0.358765  -0.010860   0.005935
    11  H    0.002407  -0.003970   0.003122  -0.015553   0.373865  -0.021783
    12  H   -0.030159  -0.001840   0.006606   0.002910  -0.039295   0.387853
    13  H   -0.015563   0.003120  -0.003971   0.002408  -0.021781   0.373864
    14  H    0.002910   0.006606  -0.001843  -0.030159   0.387852  -0.039293
    15  H    0.015178  -0.023559  -0.023836   0.393563  -0.038750  -0.019783
    16  H    0.393556  -0.023842  -0.023559   0.015186  -0.019781  -0.038755
               7          8          9         10         11         12
     1  C    0.358763  -0.041826   0.006082   0.002059   0.002407  -0.030159
     2  C   -0.025507   0.377865  -0.042452   0.015503  -0.003970  -0.001840
     3  C    0.015501  -0.042465   0.377847  -0.025517   0.003122   0.006606
     4  C    0.002058   0.006081  -0.041824   0.358765  -0.015553   0.002910
     5  C    0.005935  -0.001251  -0.001511  -0.010860   0.373865  -0.039295
     6  C   -0.010859  -0.001512  -0.001251   0.005935  -0.021783   0.387853
     7  H    0.514336  -0.010692  -0.000066  -0.000079  -0.000018   0.002658
     8  H   -0.010692   0.545694  -0.008476  -0.000066  -0.000147  -0.000329
     9  H   -0.000066  -0.008476   0.545698  -0.010692   0.001945   0.000128
    10  H   -0.000079  -0.000066  -0.010692   0.514357  -0.002921  -0.000335
    11  H   -0.000018  -0.000147   0.001945  -0.002921   0.512673   0.006335
    12  H    0.002658  -0.000329   0.000128  -0.000335   0.006335   0.513403
    13  H   -0.002921   0.001946  -0.000147  -0.000018  -0.009220  -0.028195
    14  H   -0.000335   0.000128  -0.000329   0.002659  -0.028194  -0.009500
    15  H    0.000297  -0.000078   0.006329  -0.030357   0.005734   0.002813
    16  H   -0.030349   0.006328  -0.000079   0.000297  -0.000126  -0.005897
              13         14         15         16
     1  C   -0.015563   0.002910   0.015178   0.393556
     2  C    0.003120   0.006606  -0.023559  -0.023842
     3  C   -0.003971  -0.001843  -0.023836  -0.023559
     4  C    0.002408  -0.030159   0.393563   0.015186
     5  C   -0.021781   0.387852  -0.038750  -0.019781
     6  C    0.373864  -0.039293  -0.019783  -0.038755
     7  H   -0.002921  -0.000335   0.000297  -0.030349
     8  H    0.001946   0.000128  -0.000078   0.006328
     9  H   -0.000147  -0.000329   0.006329  -0.000079
    10  H   -0.000018   0.002659  -0.030357   0.000297
    11  H   -0.009220  -0.028194   0.005734  -0.000126
    12  H   -0.028195  -0.009500   0.002813  -0.005897
    13  H    0.512676   0.006334  -0.000126   0.005734
    14  H    0.006334   0.513410  -0.005897   0.002813
    15  H   -0.000126  -0.005897   0.529029  -0.007034
    16  H    0.005734   0.002813  -0.007034   0.529014
 Mulliken charges:
               1
     1  C   -0.450413
     2  C   -0.093041
     3  C   -0.093108
     4  C   -0.450378
     5  C   -0.371755
     6  C   -0.371812
     7  H    0.181278
     8  H    0.168799
     9  H    0.168796
    10  H    0.181270
    11  H    0.175851
    12  H    0.192846
    13  H    0.175858
    14  H    0.192838
    15  H    0.196478
    16  H    0.196493
 Sum of Mulliken charges =  -0.00000
 Mulliken charges with hydrogens summed into heavy atoms:
               1
     1  C   -0.072641
     2  C    0.075758
     3  C    0.075688
     4  C   -0.072630
     5  C   -0.003066
     6  C   -0.003108
 APT charges:
               1
     1  C   -0.571125
     2  C   -0.441696
     3  C   -0.637377
     4  C   -0.659751
     5  C   -1.347188
     6  C   -0.945213
     7  H    0.183778
     8  H    0.472268
     9  H    0.902434
    10  H    1.110238
    11  H    0.937080
    12  H   -0.043816
    13  H    0.442429
    14  H    0.449545
    15  H   -0.132834
    16  H    0.281228
 Sum of APT charges =  -0.00000
 APT charges with hydrogens summed into heavy atoms:
               1
     1  C   -0.106119
     2  C    0.030572
     3  C    0.265057
     4  C    0.317653
     5  C    0.039437
     6  C   -0.546600
 Electronic spatial extent (au):  <R**2>=           3654.5262
 Charge=             -0.0000 electrons
 Dipole moment (field-independent basis, Debye):
    X=             -0.3470    Y=              0.2055    Z=              0.2670  Tot=              0.4837
 Quadrupole moment (field-independent basis, Debye-Ang):
   XX=            -39.2562   YY=            -35.9896   ZZ=            -40.7470
   XY=              0.4536   XZ=              2.7224   YZ=             -0.7200
 Traceless Quadrupole moment (field-independent basis, Debye-Ang):
   XX=             -0.5919   YY=              2.6746   ZZ=             -2.0827
   XY=              0.4536   XZ=              2.7224   YZ=             -0.7200
 Octapole moment (field-independent basis, Debye-Ang**2):
  XXX=           -203.7636  YYY=           -283.7442  ZZZ=           -364.8444  XYY=            -60.3736
  XXY=            -98.8847  XXZ=           -103.5067  XZZ=            -56.7782  YZZ=           -115.2448
  YYZ=           -113.3495  XYZ=              8.8357
 Hexadecapole moment (field-independent basis, Debye-Ang**3):
 XXXX=          -1025.2907 YYYY=          -1797.5435 ZZZZ=          -2364.7871 XXXY=           -525.1963
 XXXZ=           -499.2308 YYYX=           -483.8044 YYYZ=           -900.2518 ZZZX=           -504.2608
 ZZZY=          -1029.2339 XXYY=           -468.3449 XXZZ=           -504.5463 YYZZ=           -734.3697
 XXYZ=           -275.5698 YYXZ=           -138.1992 ZZXY=           -144.1257
 N-N= 2.255323325021D+02 E-N=-9.937248987609D+02  KE= 2.333521246293D+02
  Exact polarizability:   0.000   0.000   0.000   0.000   0.000   0.000
 Approx polarizability: 104.521   3.737 109.558 -12.734   6.415  73.585
   1 Symmetry operations used in ECPInt.
 ECPInt:  NShTT=    3081 NPrTT=   11790 LenC2=    3049 LenP2D=    9034.
 LDataN:  DoStor=T MaxTD1= 4 Len=   56
 Calling FoFJK, ICntrl=    100127 FMM=F ISym2X=0 I1Cent= 0 IOpClX= 0 NMat=1 NMatS=1 NMatT=0.
 -------------------------------------------------------------------
 Center     Atomic                   Forces (Hartrees/Bohr)
 Number     Number              X              Y              Z
 -------------------------------------------------------------------
      1        6           0.000009140    0.000015318    0.000008464
      2        6          -0.000039613   -0.000001688    0.000012077
      3        6          -0.000005091   -0.000012658   -0.000022745
      4        6           0.000025604   -0.000016165   -0.000014033
      5        6           0.000016481    0.000042453    0.000013375
      6        6          -0.000007632   -0.000023668    0.000000663
      7        1           0.000002199   -0.000001750   -0.000008841
      8        1           0.000001215    0.000005454    0.000010824
      9        1          -0.000005577   -0.000003994    0.000018418
     10        1          -0.000005189   -0.000000583   -0.000010650
     11        1           0.000012565   -0.000000432    0.000001335
     12        1          -0.000005594    0.000006067   -0.000005723
     13        1           0.000000893   -0.000010521   -0.000007854
     14        1          -0.000002133   -0.000009883   -0.000014166
     15        1          -0.000008703    0.000002217    0.000001918
     16        1           0.000011435    0.000009833    0.000016937
 -------------------------------------------------------------------
 Cartesian Forces:  Max     0.000042453 RMS     0.000013612
 IRC-IRC-IRC-IRC-IRC-IRC-IRC-IRC-IRC-IRC-IRC-IRC-IRC-IRC-IRC-IRC-IRC-IRC
          ******** Start new reaction path calculation ********
 Setting the phase of the TS vector:      1      6      0      0
 Supplied step size of   0.0500 bohr.
    Integration on MW PES will use step size of   0.1457 sqrt(amu)*bohr.
 Point Number:   0          Path Number:   1
 Calculating another point on the path.
 IRC-IRC-IRC-IRC-IRC-IRC-IRC-IRC-IRC-IRC-IRC-IRC-IRC-IRC-IRC-IRC-IRC-IRC
                          Input orientation:                          
 ---------------------------------------------------------------------
 Center     Atomic      Atomic             Coordinates (Angstroms)
 Number     Number       Type             X           Y           Z
 ---------------------------------------------------------------------
      1          6           0       -0.637934   -1.294553   -0.624119
      2          6           0        0.717065   -1.235001   -0.419529
      3          6           0        1.419236   -0.012134   -0.448396
      4          6           0        0.783128    1.180352   -0.682509
      5          6           0       -0.712426    1.225986    1.029278
      6          6           0       -1.396685    0.034293    1.057400
      7          1           0       -1.175330   -2.220701   -0.470545
      8          1           0        1.228336   -2.107380   -0.031763
      9          1           0        2.438081   -0.000542   -0.081485
     10          1           0        1.314789    2.116005   -0.572880
     11          1           0        0.089267    1.413368    1.726902
     12          1           0       -2.395681   -0.032281    0.648481
     13          1           0       -1.139938   -0.727386    1.777422
     14          1           0       -1.167071    2.107410    0.597967
     15          1           0       -0.104602    1.229338   -1.295194
     16          1           0       -1.140407   -0.574549   -1.252584
 ---------------------------------------------------------------------
                    Distance matrix (angstroms):
                    1          2          3          4          5
     1  C    0.000000
     2  C    1.371652   0.000000
     3  C    2.430520   1.410418   0.000000
     4  C    2.854467   2.430525   1.371665   0.000000
     5  C    3.015359   3.193579   2.874099   2.273539   0.000000
     6  C    2.273553   2.874086   3.193586   3.015347   1.374458
     7  H    1.081725   2.134331   3.407349   3.930350   3.787269
     8  H    2.120033   1.082961   2.144779   3.380955   4.000462
     9  H    3.380945   2.144775   1.082961   2.120049   3.558632
    10  H    3.930351   3.407350   2.134334   1.081725   2.732882
    11  H    3.659093   3.466289   2.921095   2.518134   1.079121
    12  H    2.510481   3.503765   3.969526   3.653333   2.135788
    13  H    2.518151   2.921083   3.466298   3.659085   2.134982
    14  H    3.653332   3.969507   3.503759   2.510445   1.081499
    15  H    2.665485   2.741330   2.140187   1.079744   2.402630
    16  H    1.079747   2.140183   2.741314   2.665455   2.938025
                    6          7          8          9         10
     6  C    0.000000
     7  H    2.732876   0.000000
     8  H    3.558620   2.446014   0.000000
     9  H    4.000463   4.258781   2.429963   0.000000
    10  H    3.787272   5.001818   4.258786   2.446022   0.000000
    11  H    2.134979   4.431076   4.097078   3.284255   2.699000
    12  H    1.081498   2.744204   4.231107   4.888672   4.458076
    13  H    1.079123   2.698999   3.284243   4.097079   4.431080
    14  H    2.135794   4.458064   4.888659   4.231104   2.744191
    15  H    2.938079   3.705304   3.808762   3.074237   1.822796
    16  H    2.402581   1.822806   3.074235   3.808745   3.705275
                   11         12         13         14         15
    11  H    0.000000
    12  H    3.070482   0.000000
    13  H    2.469074   1.826080   0.000000
    14  H    1.826081   2.467856   3.070492   0.000000
    15  H    3.033894   3.258619   3.787038   2.341775   0.000000
    16  H    3.786984   2.341755   3.033858   3.258551   2.080557
                   16
    16  H    0.000000
 Symmetry turned off by external request.
 Stoichiometry    C6H10
 Framework group  C1[X(C6H10)]
 Deg. of freedom    42
 Full point group                 C1      NOp   1
 Rotational constants (GHZ):           4.3704337           3.5044562           2.2898838
 Basis read from rwf:  (5D, 7F)
 Pseudo-potential data read from rwf file.
   114 basis functions,   224 primitive gaussians,   114 cartesian basis functions
    23 alpha electrons       23 beta electrons
       nuclear repulsion energy       225.2746477036 Hartrees.
 NAtoms=   16 NActive=   16 NUniq=   16 SFac= 1.00D+00 NAtFMM=   60 NAOKFM=F Big=F
 Integral buffers will be    131072 words long.
 Raffenetti 2 integral format.
 Two-electron integral symmetry is turned off.
 One-electron integrals computed using PRISM.
   1 Symmetry operations used in ECPInt.
 ECPInt:  NShTT=    3081 NPrTT=   11790 LenC2=    3049 LenP2D=    9028.
 LDataN:  DoStor=T MaxTD1= 2 Len=   12
 NBasis=   114 RedAO= T EigKep=  8.60D-05  NBF=   114
 NBsUse=   114 1.00D-06 EigRej= -1.00D+00 NBFU=   114
 Initial guess from the checkpoint file:  "dairc1-testf.chk"
 B after Tr=    -3.382619   -4.876423   -5.550703
         Rot=    1.000000    0.000017    0.000029   -0.000000 Ang=   0.00 deg.
 ExpMin= 9.52D-02 ExpMax= 1.36D+04 ExpMxC= 4.63D+02 IAcc=3 IRadAn=         5 AccDes= 0.00D+00
 Harris functional with IExCor= 1009 and IRadAn=       5 diagonalized for initial guess.
 HarFok:  IExCor= 1009 AccDes= 0.00D+00 IRadAn=         5 IDoV= 1 UseB2=F ITyADJ=14
 ICtDFT=  3500011 ScaDFX=  1.000000  1.000000  1.000000  1.000000
 FoFCou: FMM=F IPFlag=           0 FMFlag=      100000 FMFlg1=           0
         NFxFlg=           0 DoJE=T BraDBF=F KetDBF=T FulRan=T
         wScrn=  0.000000 ICntrl=       500 IOpCl=  0 I1Cent=   200000004 NGrid=           0
         NMat0=    1 NMatS0=      1 NMatT0=    0 NMatD0=    1 NMtDS0=    0 NMtDT0=    0
 Symmetry not used in FoFCou.
 Requested convergence on RMS density matrix=1.00D-08 within  32 cycles.
 Requested convergence on MAX density matrix=1.00D-06.
 Requested convergence on             energy=1.00D-06.
 No special actions if energy rises.
 SCF Done:  E(RM062X) =  -234.433373021     A.U. after   10 cycles
            NFock= 10  Conv=0.59D-08     -V/T= 2.0045
 QCSCF skips out because SCF is already converged.
 DoSCS=F DFT=T ScalE2(SS,OS)=  1.000000  1.000000
 Range of M.O.s used for correlation:     1   114
 NBasis=   114 NAE=    23 NBE=    23 NFC=     0 NFV=     0
 NROrb=    114 NOA=    23 NOB=    23 NVA=    91 NVB=    91

 **** Warning!!: The largest alpha MO coefficient is  0.30734588D+02

   1 Symmetry operations used in ECPInt.
 ECPInt:  NShTT=    3081 NPrTT=   11790 LenC2=    3049 LenP2D=    9028.
 LDataN:  DoStor=T MaxTD1= 3 Len=   28
 Symmetrizing basis deriv contribution to polar:
 IMax=3 JMax=2 DiffMx= 0.00D+00
 G2DrvN: will do    17 centers at a time, making    1 passes.
 Calling FoFCou, ICntrl=  3107 FMM=F I1Cent=   0 AccDes= 1.00D-11.
 End of G2Drv F.D. properties file   721 does not exist.
 End of G2Drv F.D. properties file   722 does not exist.
 End of G2Drv F.D. properties file   788 does not exist.
          IDoAtm=1111111111111111
          Differentiating once with respect to nuclear coordinates.
 Keep R1 ints in memory in canonical form, NReq=36494925.
          There are    51 degrees of freedom in the 1st order CPHF.  IDoFFX=6 NUNeed=     0.
     45 vectors produced by pass  0 Test12= 4.10D-15 1.96D-09 XBig12= 7.24D-02 9.61D-02.
 AX will form    45 AO Fock derivatives at one time.
     45 vectors produced by pass  1 Test12= 4.10D-15 1.96D-09 XBig12= 7.46D-03 1.91D-02.
     45 vectors produced by pass  2 Test12= 4.10D-15 1.96D-09 XBig12= 8.38D-05 1.50D-03.
     45 vectors produced by pass  3 Test12= 4.10D-15 1.96D-09 XBig12= 4.28D-07 1.10D-04.
     45 vectors produced by pass  4 Test12= 4.10D-15 1.96D-09 XBig12= 1.40D-09 4.72D-06.
     45 vectors produced by pass  5 Test12= 4.10D-15 1.96D-09 XBig12= 3.64D-12 2.43D-07.
     16 vectors produced by pass  6 Test12= 4.10D-15 1.96D-09 XBig12= 1.12D-14 1.44D-08.
 InvSVY:  IOpt=1 It=  1 EMax= 3.61D-16
 Solved reduced A of dimension   286 with    51 vectors.
 End of Minotr F.D. properties file   721 does not exist.
 End of Minotr F.D. properties file   722 does not exist.
 End of Minotr F.D. properties file   788 does not exist.
   1 Symmetry operations used in ECPInt.
 ECPInt:  NShTT=    3081 NPrTT=   11790 LenC2=    3049 LenP2D=    9028.
 LDataN:  DoStor=T MaxTD1= 4 Len=   56
 Calling FoFJK, ICntrl=    100127 FMM=F ISym2X=0 I1Cent= 0 IOpClX= 0 NMat=1 NMatS=1 NMatT=0.
 -------------------------------------------------------------------
 Center     Atomic                   Forces (Hartrees/Bohr)
 Number     Number              X              Y              Z
 -------------------------------------------------------------------
      1        6           0.000920982   -0.001409704   -0.001874322
      2        6          -0.000284397   -0.000419044   -0.000127923
      3        6           0.000227354    0.000408404   -0.000181764
      4        6           0.001673440   -0.000149378   -0.001915611
      5        6          -0.001645886    0.000490026    0.002051951
      6        6          -0.001191281    0.001255598    0.002020629
      7        1           0.000057736   -0.000094780   -0.000113504
      8        1          -0.000009355    0.000020772    0.000072250
      9        1          -0.000022744   -0.000000545    0.000079808
     10        1           0.000101248   -0.000005102   -0.000116870
     11        1           0.000010694   -0.000025165   -0.000063993
     12        1           0.000049045   -0.000011327   -0.000030921
     13        1           0.000020151    0.000001693   -0.000074339
     14        1           0.000039309   -0.000051398   -0.000036796
     15        1           0.000023318    0.000003837    0.000147198
     16        1           0.000030386   -0.000013886    0.000164209
 -------------------------------------------------------------------
 Cartesian Forces:  Max     0.002051951 RMS     0.000760143
 IRC-IRC-IRC-IRC-IRC-IRC-IRC-IRC-IRC-IRC-IRC-IRC-IRC-IRC-IRC-IRC-IRC-IRC
 Pt  1 Step number   1 out of a maximum of  20
 Modified Bulirsch-Stoer Extrapolation Cycles:
    EPS =    0.000010000000000
      PEZero:  N= 2 I= 1 D=  3.79D-04 Err=  4.28D-04
      PEZero:  N= 3 I= 2 D=  3.79D-04 Err=  2.85D-04
      PEZero:  N= 3 I= 1 D=  7.59D-04 Err=  5.21D-08
 Maximum DWI energy   std dev =  0.000000556 at pt    19
 Maximum DWI gradient std dev =  0.024755745 at pt    27
 CORRECTOR INTEGRATION CONVERGENCE:
   Recorrection delta-x convergence threshold:    0.010000
   Delta-x Convergence Met
 Point Number:   1          Path Number:   1
   CHANGE IN THE REACTION COORDINATE =    0.14570
   NET REACTION COORDINATE UP TO THIS POINT =    0.14570
  # OF POINTS ALONG THE PATH =   1
  # OF STEPS =   1

 Calculating another point on the path.
 IRC-IRC-IRC-IRC-IRC-IRC-IRC-IRC-IRC-IRC-IRC-IRC-IRC-IRC-IRC-IRC-IRC-IRC
                          Input orientation:                          
 ---------------------------------------------------------------------
 Center     Atomic      Atomic             Coordinates (Angstroms)
 Number     Number       Type             X           Y           Z
 ---------------------------------------------------------------------
      1          6           0       -0.633888   -1.300555   -0.631670
      2          6           0        0.715836   -1.236698   -0.420064
      3          6           0        1.420075   -0.010352   -0.449105
      4          6           0        0.790314    1.179596   -0.690288
      5          6           0       -0.719529    1.227293    1.037671
      6          6           0       -1.401216    0.040095    1.065649
      7          1           0       -1.172845   -2.225301   -0.475856
      8          1           0        1.227858   -2.106860   -0.028274
      9          1           0        2.437415   -0.000412   -0.077922
     10          1           0        1.320072    2.115927   -0.578287
     11          1           0        0.091200    1.412932    1.725111
     12          1           0       -2.395349   -0.033408    0.646380
     13          1           0       -1.138673   -0.728904    1.775592
     14          1           0       -1.165877    2.107595    0.595744
     15          1           0       -0.105977    1.229419   -1.289899
     16          1           0       -1.140955   -0.572911   -1.247076
 ---------------------------------------------------------------------
                    Distance matrix (angstroms):
                    1          2          3          4          5
     1  C    0.000000
     2  C    1.367703   0.000000
     3  C    2.432430   1.414469   0.000000
     4  C    2.860583   2.432498   1.367751   0.000000
     5  C    3.030520   3.202581   2.884471   2.295156   0.000000
     6  C    2.295000   2.884347   3.202609   3.030607   1.369277
     7  H    1.081623   2.132502   3.410272   3.936153   3.796929
     8  H    2.116675   1.082981   2.146950   3.380902   4.005638
     9  H    3.380815   2.146928   1.082985   2.116684   3.566245
    10  H    3.936135   3.410313   2.132546   1.081621   2.749720
    11  H    3.666494   3.465904   2.918709   2.525343   1.079035
    12  H    2.518296   3.502097   3.969645   3.661490   2.133272
    13  H    2.525174   2.918555   3.465947   3.666596   2.132350
    14  H    3.661289   3.969510   3.502079   2.518281   1.081415
    15  H    2.666969   2.741117   2.138410   1.079515   2.407080
    16  H    1.079494   2.138279   2.740822   2.666664   2.939117
                    6          7          8          9         10
     6  C    0.000000
     7  H    2.749620   0.000000
     8  H    3.566246   2.444940   0.000000
     9  H    4.005556   4.259397   2.429530   0.000000
    10  H    3.796974   5.007134   4.259454   2.444936   0.000000
    11  H    2.132341   4.436080   4.093322   3.279206   2.703696
    12  H    1.081429   2.749241   4.228710   4.886851   4.463608
    13  H    1.079031   2.703588   3.279201   4.093241   4.436129
    14  H    2.133249   4.463447   4.886818   4.228620   2.749247
    15  H    2.939514   3.706206   3.808092   3.074120   1.823706
    16  H    2.406701   1.823784   3.074045   3.807809   3.705912
                   11         12         13         14         15
    11  H    0.000000
    12  H    3.072212   0.000000
    13  H    2.470344   1.827039   0.000000
    14  H    1.827093   2.469425   3.072216   0.000000
    15  H    3.027019   3.253480   3.781366   2.334573   0.000000
    16  H    3.780962   2.334468   3.026691   3.252955   2.078800
                   16
    16  H    0.000000
 Symmetry turned off by external request.
 Stoichiometry    C6H10
 Framework group  C1[X(C6H10)]
 Deg. of freedom    42
 Full point group                 C1      NOp   1
 Rotational constants (GHZ):           4.3591209           3.4792004           2.2775914
 Basis read from rwf:  (5D, 7F)
 Pseudo-potential data read from rwf file.
   114 basis functions,   224 primitive gaussians,   114 cartesian basis functions
    23 alpha electrons       23 beta electrons
       nuclear repulsion energy       225.0037634889 Hartrees.
 NAtoms=   16 NActive=   16 NUniq=   16 SFac= 1.00D+00 NAtFMM=   60 NAOKFM=F Big=F
 Integral buffers will be    131072 words long.
 Raffenetti 2 integral format.
 Two-electron integral symmetry is turned off.
 One-electron integrals computed using PRISM.
   1 Symmetry operations used in ECPInt.
 ECPInt:  NShTT=    3081 NPrTT=   11790 LenC2=    3049 LenP2D=    9026.
 LDataN:  DoStor=T MaxTD1= 2 Len=   12
 NBasis=   114 RedAO= T EigKep=  8.84D-05  NBF=   114
 NBsUse=   114 1.00D-06 EigRej= -1.00D+00 NBFU=   114
 Initial guess from the checkpoint file:  "dairc1-testf.chk"
 B after Tr=     0.000193   -0.000108   -0.000013
         Rot=    1.000000    0.000021    0.000033    0.000014 Ang=   0.00 deg.
 ExpMin= 9.52D-02 ExpMax= 1.36D+04 ExpMxC= 4.63D+02 IAcc=3 IRadAn=         5 AccDes= 0.00D+00
 Harris functional with IExCor= 1009 and IRadAn=       5 diagonalized for initial guess.
 HarFok:  IExCor= 1009 AccDes= 0.00D+00 IRadAn=         5 IDoV= 1 UseB2=F ITyADJ=14
 ICtDFT=  3500011 ScaDFX=  1.000000  1.000000  1.000000  1.000000
 FoFCou: FMM=F IPFlag=           0 FMFlag=      100000 FMFlg1=           0
         NFxFlg=           0 DoJE=T BraDBF=F KetDBF=T FulRan=T
         wScrn=  0.000000 ICntrl=       500 IOpCl=  0 I1Cent=   200000004 NGrid=           0
         NMat0=    1 NMatS0=      1 NMatT0=    0 NMatD0=    1 NMtDS0=    0 NMtDT0=    0
 Symmetry not used in FoFCou.
 Requested convergence on RMS density matrix=1.00D-08 within  32 cycles.
 Requested convergence on MAX density matrix=1.00D-06.
 Requested convergence on             energy=1.00D-06.
 No special actions if energy rises.
 SCF Done:  E(RM062X) =  -234.433700836     A.U. after   10 cycles
            NFock= 10  Conv=0.68D-08     -V/T= 2.0044
 QCSCF skips out because SCF is already converged.
 DoSCS=F DFT=T ScalE2(SS,OS)=  1.000000  1.000000
 Range of M.O.s used for correlation:     1   114
 NBasis=   114 NAE=    23 NBE=    23 NFC=     0 NFV=     0
 NROrb=    114 NOA=    23 NOB=    23 NVA=    91 NVB=    91

 **** Warning!!: The largest alpha MO coefficient is  0.28354542D+02

   1 Symmetry operations used in ECPInt.
 ECPInt:  NShTT=    3081 NPrTT=   11790 LenC2=    3049 LenP2D=    9026.
 LDataN:  DoStor=T MaxTD1= 3 Len=   28
 Symmetrizing basis deriv contribution to polar:
 IMax=3 JMax=2 DiffMx= 0.00D+00
 G2DrvN: will do    17 centers at a time, making    1 passes.
 Calling FoFCou, ICntrl=  3107 FMM=F I1Cent=   0 AccDes= 1.00D-11.
 End of G2Drv F.D. properties file   721 does not exist.
 End of G2Drv F.D. properties file   722 does not exist.
 End of G2Drv F.D. properties file   788 does not exist.
          IDoAtm=1111111111111111
          Differentiating once with respect to nuclear coordinates.
 Keep R1 ints in memory in canonical form, NReq=36494925.
          There are    51 degrees of freedom in the 1st order CPHF.  IDoFFX=6 NUNeed=     0.
     45 vectors produced by pass  0 Test12= 4.10D-15 1.96D-09 XBig12= 7.18D-02 9.41D-02.
 AX will form    45 AO Fock derivatives at one time.
     45 vectors produced by pass  1 Test12= 4.10D-15 1.96D-09 XBig12= 7.49D-03 1.88D-02.
     45 vectors produced by pass  2 Test12= 4.10D-15 1.96D-09 XBig12= 8.39D-05 1.51D-03.
     45 vectors produced by pass  3 Test12= 4.10D-15 1.96D-09 XBig12= 4.28D-07 1.16D-04.
     45 vectors produced by pass  4 Test12= 4.10D-15 1.96D-09 XBig12= 1.41D-09 4.75D-06.
     45 vectors produced by pass  5 Test12= 4.10D-15 1.96D-09 XBig12= 3.65D-12 2.38D-07.
     15 vectors produced by pass  6 Test12= 4.10D-15 1.96D-09 XBig12= 1.11D-14 1.48D-08.
 InvSVY:  IOpt=1 It=  1 EMax= 2.78D-16
 Solved reduced A of dimension   285 with    51 vectors.
 End of Minotr F.D. properties file   721 does not exist.
 End of Minotr F.D. properties file   722 does not exist.
 End of Minotr F.D. properties file   788 does not exist.
   1 Symmetry operations used in ECPInt.
 ECPInt:  NShTT=    3081 NPrTT=   11790 LenC2=    3049 LenP2D=    9026.
 LDataN:  DoStor=T MaxTD1= 4 Len=   56
 Calling FoFJK, ICntrl=    100127 FMM=F ISym2X=0 I1Cent= 0 IOpClX= 0 NMat=1 NMatS=1 NMatT=0.
 -------------------------------------------------------------------
 Center     Atomic                   Forces (Hartrees/Bohr)
 Number     Number              X              Y              Z
 -------------------------------------------------------------------
      1        6           0.001767083   -0.002730947   -0.003510495
      2        6          -0.000484149   -0.000775804   -0.000257367
      3        6           0.000419680    0.000788159   -0.000300875
      4        6           0.003196346   -0.000279356   -0.003570132
      5        6          -0.003190573    0.000746889    0.003843398
      6        6          -0.002175988    0.002520646    0.003803084
      7        1           0.000102832   -0.000181927   -0.000203947
      8        1          -0.000015783    0.000020466    0.000115541
      9        1          -0.000023569    0.000004873    0.000115002
     10        1           0.000208441   -0.000005747   -0.000208940
     11        1           0.000028484   -0.000032423   -0.000092669
     12        1           0.000053263   -0.000036104   -0.000056816
     13        1           0.000040080   -0.000010625   -0.000092993
     14        1           0.000057035   -0.000031313   -0.000054400
     15        1           0.000010696    0.000005855    0.000233956
     16        1           0.000006119   -0.000002642    0.000237656
 -------------------------------------------------------------------
 Cartesian Forces:  Max     0.003843398 RMS     0.001437181
 IRC-IRC-IRC-IRC-IRC-IRC-IRC-IRC-IRC-IRC-IRC-IRC-IRC-IRC-IRC-IRC-IRC-IRC
 Pt  2 Step number   1 out of a maximum of  20
 Modified Bulirsch-Stoer Extrapolation Cycles:
    EPS =    0.000010000000000
      PEZero:  N= 2 I= 1 D=  7.59D-04 Err=  4.38D-06
 Maximum DWI energy   std dev =  0.000000548 at pt    14
 Maximum DWI gradient std dev =  0.014430239 at pt    15
 CORRECTOR INTEGRATION CONVERGENCE:
   Recorrection delta-x convergence threshold:    0.010000
   Delta-x Convergence Met
 Point Number:   2          Path Number:   1
   CHANGE IN THE REACTION COORDINATE =    0.14566
   NET REACTION COORDINATE UP TO THIS POINT =    0.29137
  # OF POINTS ALONG THE PATH =   2
  # OF STEPS =   1

 Calculating another point on the path.
 IRC-IRC-IRC-IRC-IRC-IRC-IRC-IRC-IRC-IRC-IRC-IRC-IRC-IRC-IRC-IRC-IRC-IRC
                          Input orientation:                          
 ---------------------------------------------------------------------
 Center     Atomic      Atomic             Coordinates (Angstroms)
 Number     Number       Type             X           Y           Z
 ---------------------------------------------------------------------
      1          6           0       -0.629906   -1.306653   -0.639276
      2          6           0        0.714746   -1.238385   -0.420651
      3          6           0        1.420971   -0.008602   -0.449780
      4          6           0        0.797457    1.178959   -0.698017
      5          6           0       -0.726631    1.228738    1.046075
      6          6           0       -1.405878    0.045802    1.073953
      7          1           0       -1.170126   -2.230190   -0.481272
      8          1           0        1.227568   -2.106487   -0.025300
      9          1           0        2.437009   -0.000290   -0.074951
     10          1           0        1.325618    2.115827   -0.583823
     11          1           0        0.092815    1.412437    1.723513
     12          1           0       -2.395116   -0.034479    0.644622
     13          1           0       -1.137467   -0.730105    1.774012
     14          1           0       -1.164889    2.107874    0.593991
     15          1           0       -0.107028    1.229651   -1.284730
     16          1           0       -1.141590   -0.571875   -1.241880
 ---------------------------------------------------------------------
                    Distance matrix (angstroms):
                    1          2          3          4          5
     1  C    0.000000
     2  C    1.364018   0.000000
     3  C    2.434531   1.418439   0.000000
     4  C    2.866895   2.434609   1.364071   0.000000
     5  C    3.045977   3.211782   2.894958   2.316718   0.000000
     6  C    2.316554   2.894826   3.211821   3.046081   1.364365
     7  H    1.081537   2.130749   3.413243   3.942164   3.807054
     8  H    2.113507   1.083001   2.149119   3.381080   4.011292
     9  H    3.380978   2.149088   1.083005   2.113520   3.574328
    10  H    3.942146   3.413286   2.130787   1.081534   2.766807
    11  H    3.674037   3.465701   2.916599   2.532753   1.078962
    12  H    2.526418   3.500776   3.970000   3.669828   2.130898
    13  H    2.532586   2.916434   3.465750   3.674152   2.129729
    14  H    3.669625   3.969883   3.500799   2.526454   1.081356
    15  H    2.668867   2.741012   2.136631   1.079304   2.411755
    16  H    1.079283   2.136500   2.740696   2.668541   2.940942
                    6          7          8          9         10
     6  C    0.000000
     7  H    2.766666   0.000000
     8  H    3.574318   2.443798   0.000000
     9  H    4.011219   4.260161   2.429255   0.000000
    10  H    3.807137   5.012695   4.260222   2.443785   0.000000
    11  H    2.129718   4.441264   4.090090   3.274982   2.708940
    12  H    1.081371   2.754883   4.226802   4.885528   4.469537
    13  H    1.078962   2.708806   3.274958   4.090009   4.441341
    14  H    2.130863   4.469341   4.885510   4.226760   2.754984
    15  H    2.941411   3.707589   3.807510   3.073832   1.824570
    16  H    2.411319   1.824650   3.073762   3.807204   3.707276
                   11         12         13         14         15
    11  H    0.000000
    12  H    3.073658   0.000000
    13  H    2.471160   1.827867   0.000000
    14  H    1.827915   2.470971   3.073650   0.000000
    15  H    3.020409   3.248964   3.776024   2.328076   0.000000
    16  H    3.775553   2.327877   3.020043   3.248387   2.077895
                   16
    16  H    0.000000
 Symmetry turned off by external request.
 Stoichiometry    C6H10
 Framework group  C1[X(C6H10)]
 Deg. of freedom    42
 Full point group                 C1      NOp   1
 Rotational constants (GHZ):           4.3474223           3.4536117           2.2649882
 Basis read from rwf:  (5D, 7F)
 Pseudo-potential data read from rwf file.
   114 basis functions,   224 primitive gaussians,   114 cartesian basis functions
    23 alpha electrons       23 beta electrons
       nuclear repulsion energy       224.7213844545 Hartrees.
 NAtoms=   16 NActive=   16 NUniq=   16 SFac= 1.00D+00 NAtFMM=   60 NAOKFM=F Big=F
 Integral buffers will be    131072 words long.
 Raffenetti 2 integral format.
 Two-electron integral symmetry is turned off.
 One-electron integrals computed using PRISM.
   1 Symmetry operations used in ECPInt.
 ECPInt:  NShTT=    3081 NPrTT=   11790 LenC2=    3049 LenP2D=    9020.
 LDataN:  DoStor=T MaxTD1= 2 Len=   12
 NBasis=   114 RedAO= T EigKep=  9.07D-05  NBF=   114
 NBsUse=   114 1.00D-06 EigRej= -1.00D+00 NBFU=   114
 Initial guess from the checkpoint file:  "dairc1-testf.chk"
 B after Tr=     0.000203   -0.000117   -0.000024
         Rot=    1.000000    0.000013    0.000025    0.000003 Ang=   0.00 deg.
 ExpMin= 9.52D-02 ExpMax= 1.36D+04 ExpMxC= 4.63D+02 IAcc=3 IRadAn=         5 AccDes= 0.00D+00
 Harris functional with IExCor= 1009 and IRadAn=       5 diagonalized for initial guess.
 HarFok:  IExCor= 1009 AccDes= 0.00D+00 IRadAn=         5 IDoV= 1 UseB2=F ITyADJ=14
 ICtDFT=  3500011 ScaDFX=  1.000000  1.000000  1.000000  1.000000
 FoFCou: FMM=F IPFlag=           0 FMFlag=      100000 FMFlg1=           0
         NFxFlg=           0 DoJE=T BraDBF=F KetDBF=T FulRan=T
         wScrn=  0.000000 ICntrl=       500 IOpCl=  0 I1Cent=   200000004 NGrid=           0
         NMat0=    1 NMatS0=      1 NMatT0=    0 NMatD0=    1 NMtDS0=    0 NMtDT0=    0
 Symmetry not used in FoFCou.
 Requested convergence on RMS density matrix=1.00D-08 within  32 cycles.
 Requested convergence on MAX density matrix=1.00D-06.
 Requested convergence on             energy=1.00D-06.
 No special actions if energy rises.
 SCF Done:  E(RM062X) =  -234.434217854     A.U. after   10 cycles
            NFock= 10  Conv=0.58D-08     -V/T= 2.0043
 QCSCF skips out because SCF is already converged.
 DoSCS=F DFT=T ScalE2(SS,OS)=  1.000000  1.000000
 Range of M.O.s used for correlation:     1   114
 NBasis=   114 NAE=    23 NBE=    23 NFC=     0 NFV=     0
 NROrb=    114 NOA=    23 NOB=    23 NVA=    91 NVB=    91

 **** Warning!!: The largest alpha MO coefficient is  0.23375311D+02

   1 Symmetry operations used in ECPInt.
 ECPInt:  NShTT=    3081 NPrTT=   11790 LenC2=    3049 LenP2D=    9020.
 LDataN:  DoStor=T MaxTD1= 3 Len=   28
 Symmetrizing basis deriv contribution to polar:
 IMax=3 JMax=2 DiffMx= 0.00D+00
 G2DrvN: will do    17 centers at a time, making    1 passes.
 Calling FoFCou, ICntrl=  3107 FMM=F I1Cent=   0 AccDes= 1.00D-11.
 End of G2Drv F.D. properties file   721 does not exist.
 End of G2Drv F.D. properties file   722 does not exist.
 End of G2Drv F.D. properties file   788 does not exist.
          IDoAtm=1111111111111111
          Differentiating once with respect to nuclear coordinates.
 Keep R1 ints in memory in canonical form, NReq=36494925.
          There are    51 degrees of freedom in the 1st order CPHF.  IDoFFX=6 NUNeed=     0.
     45 vectors produced by pass  0 Test12= 4.10D-15 1.96D-09 XBig12= 7.12D-02 9.21D-02.
 AX will form    45 AO Fock derivatives at one time.
     45 vectors produced by pass  1 Test12= 4.10D-15 1.96D-09 XBig12= 7.72D-03 1.94D-02.
     45 vectors produced by pass  2 Test12= 4.10D-15 1.96D-09 XBig12= 8.41D-05 1.52D-03.
     45 vectors produced by pass  3 Test12= 4.10D-15 1.96D-09 XBig12= 4.29D-07 1.20D-04.
     45 vectors produced by pass  4 Test12= 4.10D-15 1.96D-09 XBig12= 1.41D-09 4.78D-06.
     45 vectors produced by pass  5 Test12= 4.10D-15 1.96D-09 XBig12= 3.65D-12 2.34D-07.
     15 vectors produced by pass  6 Test12= 4.10D-15 1.96D-09 XBig12= 1.10D-14 1.50D-08.
 InvSVY:  IOpt=1 It=  1 EMax= 2.50D-16
 Solved reduced A of dimension   285 with    51 vectors.
 End of Minotr F.D. properties file   721 does not exist.
 End of Minotr F.D. properties file   722 does not exist.
 End of Minotr F.D. properties file   788 does not exist.
   1 Symmetry operations used in ECPInt.
 ECPInt:  NShTT=    3081 NPrTT=   11790 LenC2=    3049 LenP2D=    9020.
 LDataN:  DoStor=T MaxTD1= 4 Len=   56
 Calling FoFJK, ICntrl=    100127 FMM=F ISym2X=0 I1Cent= 0 IOpClX= 0 NMat=1 NMatS=1 NMatT=0.
 -------------------------------------------------------------------
 Center     Atomic                   Forces (Hartrees/Bohr)
 Number     Number              X              Y              Z
 -------------------------------------------------------------------
      1        6           0.002489630   -0.003916052   -0.004963916
      2        6          -0.000643421   -0.001088593   -0.000363615
      3        6           0.000608123    0.001082286   -0.000418052
      4        6           0.004550797   -0.000356141   -0.005042798
      5        6          -0.004524572    0.001094504    0.005452497
      6        6          -0.003117648    0.003552106    0.005397631
      7        1           0.000154128   -0.000271541   -0.000305878
      8        1          -0.000013255    0.000020943    0.000148861
      9        1          -0.000021620    0.000003730    0.000148812
     10        1           0.000309004   -0.000008174   -0.000312496
     11        1           0.000046312   -0.000038397   -0.000108788
     12        1           0.000048377   -0.000045429   -0.000069884
     13        1           0.000054570   -0.000023821   -0.000108751
     14        1           0.000060232   -0.000021426   -0.000067825
     15        1           0.000003615    0.000014698    0.000305908
     16        1          -0.000004270    0.000001306    0.000308294
 -------------------------------------------------------------------
 Cartesian Forces:  Max     0.005452497 RMS     0.002038311
 IRC-IRC-IRC-IRC-IRC-IRC-IRC-IRC-IRC-IRC-IRC-IRC-IRC-IRC-IRC-IRC-IRC-IRC
 Pt  3 Step number   1 out of a maximum of  20
 Modified Bulirsch-Stoer Extrapolation Cycles:
    EPS =    0.000010000000000
      PEZero:  N= 2 I= 1 D=  7.59D-04 Err=  4.07D-06
 Maximum DWI energy   std dev =  0.000000516 at pt    14
 Maximum DWI gradient std dev =  0.008287707 at pt    16
 CORRECTOR INTEGRATION CONVERGENCE:
   Recorrection delta-x convergence threshold:    0.010000
   Delta-x Convergence Met
 Point Number:   3          Path Number:   1
   CHANGE IN THE REACTION COORDINATE =    0.14567
   NET REACTION COORDINATE UP TO THIS POINT =    0.43704
  # OF POINTS ALONG THE PATH =   3
  # OF STEPS =   1

 Calculating another point on the path.
 IRC-IRC-IRC-IRC-IRC-IRC-IRC-IRC-IRC-IRC-IRC-IRC-IRC-IRC-IRC-IRC-IRC-IRC
                          Input orientation:                          
 ---------------------------------------------------------------------
 Center     Atomic      Atomic             Coordinates (Angstroms)
 Number     Number       Type             X           Y           Z
 ---------------------------------------------------------------------
      1          6           0       -0.626003   -1.312785   -0.646903
      2          6           0        0.713748   -1.240062   -0.421218
      3          6           0        1.421907   -0.006928   -0.450429
      4          6           0        0.804582    1.178407   -0.705764
      5          6           0       -0.733689    1.230342    1.054500
      6          6           0       -1.410653    0.051388    1.082289
      7          1           0       -1.167226   -2.235325   -0.487038
      8          1           0        1.227422   -2.106215   -0.022649
      9          1           0        2.436757   -0.000240   -0.072299
     10          1           0        1.331439    2.115691   -0.589710
     11          1           0        0.094207    1.411955    1.722071
     12          1           0       -2.395008   -0.035361    0.643206
     13          1           0       -1.136368   -0.731113    1.772589
     14          1           0       -1.164143    2.108177    0.592591
     15          1           0       -0.107773    1.229999   -1.279736
     16          1           0       -1.142177   -0.571200   -1.236881
 ---------------------------------------------------------------------
                    Distance matrix (angstroms):
                    1          2          3          4          5
     1  C    0.000000
     2  C    1.360572   0.000000
     3  C    2.436760   1.422309   0.000000
     4  C    2.873339   2.436844   1.360626   0.000000
     5  C    3.061677   3.221136   2.905554   2.338270   0.000000
     6  C    2.338108   2.905419   3.221183   3.061792   1.359774
     7  H    1.081461   2.129071   3.416241   3.948346   3.817741
     8  H    2.110547   1.083023   2.151239   3.381447   4.017315
     9  H    3.381337   2.151200   1.083027   2.110564   3.582700
    10  H    3.948329   3.416287   2.129107   1.081457   2.784246
    11  H    3.681704   3.465648   2.914751   2.540386   1.078909
    12  H    2.534872   3.499810   3.970603   3.678360   2.128649
    13  H    2.540227   2.914575   3.465692   3.681819   2.127230
    14  H    3.678169   3.970516   3.499888   2.534971   1.081317
    15  H    2.671103   2.741013   2.134867   1.079119   2.416698
    16  H    1.079101   2.134745   2.740700   2.670783   2.943271
                    6          7          8          9         10
     6  C    0.000000
     7  H    2.784079   0.000000
     8  H    3.582678   2.442676   0.000000
     9  H    4.017251   4.261022   2.429009   0.000000
    10  H    3.817853   5.018487   4.261088   2.442664   0.000000
    11  H    2.127220   4.446799   4.087266   3.271330   2.714834
    12  H    1.081329   2.761294   4.225376   4.884581   4.475882
    13  H    1.078913   2.714686   3.271283   4.087176   4.446889
    14  H    2.128604   4.475670   4.884589   4.225398   2.761489
    15  H    2.943770   3.709350   3.807012   3.073439   1.825355
    16  H    2.416245   1.825432   3.073374   3.806706   3.709042
                   11         12         13         14         15
    11  H    0.000000
    12  H    3.074876   0.000000
    13  H    2.471762   1.828592   0.000000
    14  H    1.828632   2.472316   3.074856   0.000000
    15  H    3.014092   3.245040   3.771028   2.322224   0.000000
    16  H    3.770536   2.321947   3.013720   3.244459   2.077534
                   16
    16  H    0.000000
 Symmetry turned off by external request.
 Stoichiometry    C6H10
 Framework group  C1[X(C6H10)]
 Deg. of freedom    42
 Full point group                 C1      NOp   1
 Rotational constants (GHZ):           4.3353795           3.4277949           2.2521638
 Basis read from rwf:  (5D, 7F)
 Pseudo-potential data read from rwf file.
   114 basis functions,   224 primitive gaussians,   114 cartesian basis functions
    23 alpha electrons       23 beta electrons
       nuclear repulsion energy       224.4290721776 Hartrees.
 NAtoms=   16 NActive=   16 NUniq=   16 SFac= 1.00D+00 NAtFMM=   60 NAOKFM=F Big=F
 Integral buffers will be    131072 words long.
 Raffenetti 2 integral format.
 Two-electron integral symmetry is turned off.
 One-electron integrals computed using PRISM.
   1 Symmetry operations used in ECPInt.
 ECPInt:  NShTT=    3081 NPrTT=   11790 LenC2=    3048 LenP2D=    9013.
 LDataN:  DoStor=T MaxTD1= 2 Len=   12
 NBasis=   114 RedAO= T EigKep=  9.29D-05  NBF=   114
 NBsUse=   114 1.00D-06 EigRej= -1.00D+00 NBFU=   114
 Initial guess from the checkpoint file:  "dairc1-testf.chk"
 B after Tr=     0.000211   -0.000123   -0.000039
         Rot=    1.000000    0.000011    0.000022    0.000001 Ang=   0.00 deg.
 ExpMin= 9.52D-02 ExpMax= 1.36D+04 ExpMxC= 4.63D+02 IAcc=3 IRadAn=         5 AccDes= 0.00D+00
 Harris functional with IExCor= 1009 and IRadAn=       5 diagonalized for initial guess.
 HarFok:  IExCor= 1009 AccDes= 0.00D+00 IRadAn=         5 IDoV= 1 UseB2=F ITyADJ=14
 ICtDFT=  3500011 ScaDFX=  1.000000  1.000000  1.000000  1.000000
 FoFCou: FMM=F IPFlag=           0 FMFlag=      100000 FMFlg1=           0
         NFxFlg=           0 DoJE=T BraDBF=F KetDBF=T FulRan=T
         wScrn=  0.000000 ICntrl=       500 IOpCl=  0 I1Cent=   200000004 NGrid=           0
         NMat0=    1 NMatS0=      1 NMatT0=    0 NMatD0=    1 NMtDS0=    0 NMtDT0=    0
 Symmetry not used in FoFCou.
 Requested convergence on RMS density matrix=1.00D-08 within  32 cycles.
 Requested convergence on MAX density matrix=1.00D-06.
 Requested convergence on             energy=1.00D-06.
 No special actions if energy rises.
 SCF Done:  E(RM062X) =  -234.434902518     A.U. after   10 cycles
            NFock= 10  Conv=0.59D-08     -V/T= 2.0042
 QCSCF skips out because SCF is already converged.
 DoSCS=F DFT=T ScalE2(SS,OS)=  1.000000  1.000000
 Range of M.O.s used for correlation:     1   114
 NBasis=   114 NAE=    23 NBE=    23 NFC=     0 NFV=     0
 NROrb=    114 NOA=    23 NOB=    23 NVA=    91 NVB=    91

 **** Warning!!: The largest alpha MO coefficient is  0.24764339D+02

   1 Symmetry operations used in ECPInt.
 ECPInt:  NShTT=    3081 NPrTT=   11790 LenC2=    3048 LenP2D=    9013.
 LDataN:  DoStor=T MaxTD1= 3 Len=   28
 Symmetrizing basis deriv contribution to polar:
 IMax=3 JMax=2 DiffMx= 0.00D+00
 G2DrvN: will do    17 centers at a time, making    1 passes.
 Calling FoFCou, ICntrl=  3107 FMM=F I1Cent=   0 AccDes= 1.00D-11.
 End of G2Drv F.D. properties file   721 does not exist.
 End of G2Drv F.D. properties file   722 does not exist.
 End of G2Drv F.D. properties file   788 does not exist.
          IDoAtm=1111111111111111
          Differentiating once with respect to nuclear coordinates.
 Keep R1 ints in memory in canonical form, NReq=36494925.
          There are    51 degrees of freedom in the 1st order CPHF.  IDoFFX=6 NUNeed=     0.
     45 vectors produced by pass  0 Test12= 4.10D-15 1.96D-09 XBig12= 7.05D-02 8.98D-02.
 AX will form    45 AO Fock derivatives at one time.
     45 vectors produced by pass  1 Test12= 4.10D-15 1.96D-09 XBig12= 8.03D-03 2.01D-02.
     45 vectors produced by pass  2 Test12= 4.10D-15 1.96D-09 XBig12= 8.42D-05 1.53D-03.
     45 vectors produced by pass  3 Test12= 4.10D-15 1.96D-09 XBig12= 4.30D-07 1.24D-04.
     45 vectors produced by pass  4 Test12= 4.10D-15 1.96D-09 XBig12= 1.42D-09 4.80D-06.
     45 vectors produced by pass  5 Test12= 4.10D-15 1.96D-09 XBig12= 3.65D-12 2.31D-07.
     15 vectors produced by pass  6 Test12= 4.10D-15 1.96D-09 XBig12= 1.09D-14 1.51D-08.
 InvSVY:  IOpt=1 It=  1 EMax= 2.22D-16
 Solved reduced A of dimension   285 with    51 vectors.
 End of Minotr F.D. properties file   721 does not exist.
 End of Minotr F.D. properties file   722 does not exist.
 End of Minotr F.D. properties file   788 does not exist.
   1 Symmetry operations used in ECPInt.
 ECPInt:  NShTT=    3081 NPrTT=   11790 LenC2=    3048 LenP2D=    9013.
 LDataN:  DoStor=T MaxTD1= 4 Len=   56
 Calling FoFJK, ICntrl=    100127 FMM=F ISym2X=0 I1Cent= 0 IOpClX= 0 NMat=1 NMatS=1 NMatT=0.
 -------------------------------------------------------------------
 Center     Atomic                   Forces (Hartrees/Bohr)
 Number     Number              X              Y              Z
 -------------------------------------------------------------------
      1        6           0.003090631   -0.004969617   -0.006253134
      2        6          -0.000740848   -0.001358007   -0.000445141
      3        6           0.000791064    0.001302368   -0.000508001
      4        6           0.005736167   -0.000389538   -0.006351342
      5        6          -0.005679799    0.001470909    0.006880385
      6        6          -0.003994997    0.004407376    0.006815611
      7        1           0.000205814   -0.000359735   -0.000409700
      8        1          -0.000005914    0.000017965    0.000166755
      9        1          -0.000014872   -0.000000265    0.000166834
     10        1           0.000408570   -0.000011821   -0.000418282
     11        1           0.000053338   -0.000042617   -0.000116142
     12        1           0.000037238   -0.000045927   -0.000067883
     13        1           0.000062536   -0.000027947   -0.000116090
     14        1           0.000053519   -0.000011133   -0.000065662
     15        1           0.000008953    0.000026937    0.000360214
     16        1          -0.000011400   -0.000008945    0.000361576
 -------------------------------------------------------------------
 Cartesian Forces:  Max     0.006880385 RMS     0.002568109
 IRC-IRC-IRC-IRC-IRC-IRC-IRC-IRC-IRC-IRC-IRC-IRC-IRC-IRC-IRC-IRC-IRC-IRC
 Pt  4 Step number   1 out of a maximum of  20
 Modified Bulirsch-Stoer Extrapolation Cycles:
    EPS =    0.000010000000000
      PEZero:  N= 2 I= 1 D=  7.59D-04 Err=  4.51D-06
 Maximum DWI energy   std dev =  0.000000514 at pt    14
 Maximum DWI gradient std dev =  0.005903726 at pt    16
 CORRECTOR INTEGRATION CONVERGENCE:
   Recorrection delta-x convergence threshold:    0.010000
   Delta-x Convergence Met
 Point Number:   4          Path Number:   1
   CHANGE IN THE REACTION COORDINATE =    0.14568
   NET REACTION COORDINATE UP TO THIS POINT =    0.58272
  # OF POINTS ALONG THE PATH =   4
  # OF STEPS =   1

 Calculating another point on the path.
 IRC-IRC-IRC-IRC-IRC-IRC-IRC-IRC-IRC-IRC-IRC-IRC-IRC-IRC-IRC-IRC-IRC-IRC
                          Input orientation:                          
 ---------------------------------------------------------------------
 Center     Atomic      Atomic             Coordinates (Angstroms)
 Number     Number       Type             X           Y           Z
 ---------------------------------------------------------------------
      1          6           0       -0.622181   -1.318945   -0.654545
      2          6           0        0.712851   -1.241724   -0.421764
      3          6           0        1.422881   -0.005341   -0.451050
      4          6           0        0.811685    1.177938   -0.713528
      5          6           0       -0.740701    1.232109    1.062946
      6          6           0       -1.415542    0.056850    1.090652
      7          1           0       -1.164138   -2.240715   -0.493185
      8          1           0        1.227426   -2.106042   -0.020322
      9          1           0        2.436662   -0.000273   -0.069973
     10          1           0        1.337554    2.115514   -0.595985
     11          1           0        0.095358    1.411501    1.720818
     12          1           0       -2.395061   -0.036032    0.642175
     13          1           0       -1.135398   -0.731920    1.771350
     14          1           0       -1.163664    2.108527    0.591577
     15          1           0       -0.108196    1.230469   -1.274971
     16          1           0       -1.142714   -0.570901   -1.232127
 ---------------------------------------------------------------------
                    Distance matrix (angstroms):
                    1          2          3          4          5
     1  C    0.000000
     2  C    1.357372   0.000000
     3  C    2.439107   1.426059   0.000000
     4  C    2.879909   2.439192   1.357426   0.000000
     5  C    3.077612   3.230638   2.916257   2.359809   0.000000
     6  C    2.359649   2.916119   3.230690   3.077733   1.355511
     7  H    1.081395   2.127480   3.419260   3.954695   3.829014
     8  H    2.107797   1.083047   2.153294   3.381997   4.023711
     9  H    3.381884   2.153249   1.083050   2.107818   3.591365
    10  H    3.954681   3.419307   2.127514   1.081390   2.802070
    11  H    3.689519   3.465770   2.913207   2.548278   1.078875
    12  H    2.543707   3.499253   3.971494   3.687122   2.126531
    13  H    2.548128   2.913018   3.465800   3.689622   2.124860
    14  H    3.686948   3.971442   3.499390   2.543875   1.081294
    15  H    2.673690   2.741134   2.133136   1.078962   2.421966
    16  H    1.078946   2.133028   2.740843   2.673398   2.946153
                    6          7          8          9         10
     6  C    0.000000
     7  H    2.801883   0.000000
     8  H    3.591329   2.441580   0.000000
     9  H    4.023653   4.261977   2.428781   0.000000
    10  H    3.829148   5.024516   4.262048   2.441574   0.000000
    11  H    2.124855   4.452732   4.084882   3.268294   2.721444
    12  H    1.081303   2.768545   4.224483   4.884053   4.482700
    13  H    1.078883   2.721288   3.268216   4.084775   4.452824
    14  H    2.126476   4.482479   4.884090   4.224575   2.768834
    15  H    2.946643   3.711512   3.806617   3.072954   1.826067
    16  H    2.421530   1.826136   3.072897   3.806330   3.711231
                   11         12         13         14         15
    11  H    0.000000
    12  H    3.075875   0.000000
    13  H    2.472158   1.829220   0.000000
    14  H    1.829253   2.473466   3.075842   0.000000
    15  H    3.008149   3.241793   3.766455   2.317110   0.000000
    16  H    3.765983   2.316779   3.007799   3.241246   2.077738
                   16
    16  H    0.000000
 Symmetry turned off by external request.
 Stoichiometry    C6H10
 Framework group  C1[X(C6H10)]
 Deg. of freedom    42
 Full point group                 C1      NOp   1
 Rotational constants (GHZ):           4.3230039           3.4017480           2.2391269
 Basis read from rwf:  (5D, 7F)
 Pseudo-potential data read from rwf file.
   114 basis functions,   224 primitive gaussians,   114 cartesian basis functions
    23 alpha electrons       23 beta electrons
       nuclear repulsion energy       224.1264040079 Hartrees.
 NAtoms=   16 NActive=   16 NUniq=   16 SFac= 1.00D+00 NAtFMM=   60 NAOKFM=F Big=F
 Integral buffers will be    131072 words long.
 Raffenetti 2 integral format.
 Two-electron integral symmetry is turned off.
 One-electron integrals computed using PRISM.
   1 Symmetry operations used in ECPInt.
 ECPInt:  NShTT=    3081 NPrTT=   11790 LenC2=    3048 LenP2D=    9009.
 LDataN:  DoStor=T MaxTD1= 2 Len=   12
 NBasis=   114 RedAO= T EigKep=  9.52D-05  NBF=   114
 NBsUse=   114 1.00D-06 EigRej= -1.00D+00 NBFU=   114
 Initial guess from the checkpoint file:  "dairc1-testf.chk"
 B after Tr=     0.000219   -0.000128   -0.000055
         Rot=    1.000000    0.000010    0.000019    0.000000 Ang=   0.00 deg.
 ExpMin= 9.52D-02 ExpMax= 1.36D+04 ExpMxC= 4.63D+02 IAcc=3 IRadAn=         5 AccDes= 0.00D+00
 Harris functional with IExCor= 1009 and IRadAn=       5 diagonalized for initial guess.
 HarFok:  IExCor= 1009 AccDes= 0.00D+00 IRadAn=         5 IDoV= 1 UseB2=F ITyADJ=14
 ICtDFT=  3500011 ScaDFX=  1.000000  1.000000  1.000000  1.000000
 FoFCou: FMM=F IPFlag=           0 FMFlag=      100000 FMFlg1=           0
         NFxFlg=           0 DoJE=T BraDBF=F KetDBF=T FulRan=T
         wScrn=  0.000000 ICntrl=       500 IOpCl=  0 I1Cent=   200000004 NGrid=           0
         NMat0=    1 NMatS0=      1 NMatT0=    0 NMatD0=    1 NMtDS0=    0 NMtDT0=    0
 Symmetry not used in FoFCou.
 Requested convergence on RMS density matrix=1.00D-08 within  32 cycles.
 Requested convergence on MAX density matrix=1.00D-06.
 Requested convergence on             energy=1.00D-06.
 No special actions if energy rises.
 SCF Done:  E(RM062X) =  -234.435733861     A.U. after   10 cycles
            NFock= 10  Conv=0.61D-08     -V/T= 2.0042
 QCSCF skips out because SCF is already converged.
 DoSCS=F DFT=T ScalE2(SS,OS)=  1.000000  1.000000
 Range of M.O.s used for correlation:     1   114
 NBasis=   114 NAE=    23 NBE=    23 NFC=     0 NFV=     0
 NROrb=    114 NOA=    23 NOB=    23 NVA=    91 NVB=    91

 **** Warning!!: The largest alpha MO coefficient is  0.26913392D+02

   1 Symmetry operations used in ECPInt.
 ECPInt:  NShTT=    3081 NPrTT=   11790 LenC2=    3048 LenP2D=    9009.
 LDataN:  DoStor=T MaxTD1= 3 Len=   28
 Symmetrizing basis deriv contribution to polar:
 IMax=3 JMax=2 DiffMx= 0.00D+00
 G2DrvN: will do    17 centers at a time, making    1 passes.
 Calling FoFCou, ICntrl=  3107 FMM=F I1Cent=   0 AccDes= 1.00D-11.
 End of G2Drv F.D. properties file   721 does not exist.
 End of G2Drv F.D. properties file   722 does not exist.
 End of G2Drv F.D. properties file   788 does not exist.
          IDoAtm=1111111111111111
          Differentiating once with respect to nuclear coordinates.
 Keep R1 ints in memory in canonical form, NReq=36494925.
          There are    51 degrees of freedom in the 1st order CPHF.  IDoFFX=6 NUNeed=     0.
     45 vectors produced by pass  0 Test12= 4.10D-15 1.96D-09 XBig12= 6.98D-02 8.75D-02.
 AX will form    45 AO Fock derivatives at one time.
     45 vectors produced by pass  1 Test12= 4.10D-15 1.96D-09 XBig12= 8.37D-03 2.07D-02.
     45 vectors produced by pass  2 Test12= 4.10D-15 1.96D-09 XBig12= 8.42D-05 1.55D-03.
     45 vectors produced by pass  3 Test12= 4.10D-15 1.96D-09 XBig12= 4.31D-07 1.26D-04.
     45 vectors produced by pass  4 Test12= 4.10D-15 1.96D-09 XBig12= 1.43D-09 4.83D-06.
     45 vectors produced by pass  5 Test12= 4.10D-15 1.96D-09 XBig12= 3.65D-12 2.26D-07.
     15 vectors produced by pass  6 Test12= 4.10D-15 1.96D-09 XBig12= 1.08D-14 1.57D-08.
 InvSVY:  IOpt=1 It=  1 EMax= 2.22D-16
 Solved reduced A of dimension   285 with    51 vectors.
 End of Minotr F.D. properties file   721 does not exist.
 End of Minotr F.D. properties file   722 does not exist.
 End of Minotr F.D. properties file   788 does not exist.
   1 Symmetry operations used in ECPInt.
 ECPInt:  NShTT=    3081 NPrTT=   11790 LenC2=    3048 LenP2D=    9009.
 LDataN:  DoStor=T MaxTD1= 4 Len=   56
 Calling FoFJK, ICntrl=    100127 FMM=F ISym2X=0 I1Cent= 0 IOpClX= 0 NMat=1 NMatS=1 NMatT=0.
 -------------------------------------------------------------------
 Center     Atomic                   Forces (Hartrees/Bohr)
 Number     Number              X              Y              Z
 -------------------------------------------------------------------
      1        6           0.003577097   -0.005887779   -0.007371747
      2        6          -0.000779190   -0.001580004   -0.000506444
      3        6           0.000963634    0.001447976   -0.000575323
      4        6           0.006751923   -0.000387051   -0.007489809
      5        6          -0.006657396    0.001866160    0.008123498
      6        6          -0.004801367    0.005092490    0.008052256
      7        1           0.000257778   -0.000445499   -0.000514636
      8        1           0.000005997    0.000012257    0.000171517
      9        1          -0.000003624   -0.000007302    0.000171490
     10        1           0.000506143   -0.000016941   -0.000525401
     11        1           0.000050234   -0.000044071   -0.000113394
     12        1           0.000019341   -0.000037998   -0.000050607
     13        1           0.000063528   -0.000024319   -0.000113574
     14        1           0.000036798    0.000001078   -0.000048536
     15        1           0.000025018    0.000042028    0.000395369
     16        1          -0.000015913   -0.000031026    0.000395342
 -------------------------------------------------------------------
 Cartesian Forces:  Max     0.008123498 RMS     0.003025780
 IRC-IRC-IRC-IRC-IRC-IRC-IRC-IRC-IRC-IRC-IRC-IRC-IRC-IRC-IRC-IRC-IRC-IRC
 Pt  5 Step number   1 out of a maximum of  20
 Modified Bulirsch-Stoer Extrapolation Cycles:
    EPS =    0.000010000000000
      PEZero:  N= 2 I= 1 D=  7.59D-04 Err=  4.90D-06
 Maximum DWI energy   std dev =  0.000000550 at pt    14
 Maximum DWI gradient std dev =  0.004673567 at pt    16
 CORRECTOR INTEGRATION CONVERGENCE:
   Recorrection delta-x convergence threshold:    0.010000
   Delta-x Convergence Met
 Point Number:   5          Path Number:   1
   CHANGE IN THE REACTION COORDINATE =    0.14568
   NET REACTION COORDINATE UP TO THIS POINT =    0.72840
  # OF POINTS ALONG THE PATH =   5
  # OF STEPS =   1

 Calculating another point on the path.
 IRC-IRC-IRC-IRC-IRC-IRC-IRC-IRC-IRC-IRC-IRC-IRC-IRC-IRC-IRC-IRC-IRC-IRC
                          Input orientation:                          
 ---------------------------------------------------------------------
 Center     Atomic      Atomic             Coordinates (Angstroms)
 Number     Number       Type             X           Y           Z
 ---------------------------------------------------------------------
      1          6           0       -0.618441   -1.325124   -0.662198
      2          6           0        0.712061   -1.243364   -0.422290
      3          6           0        1.423892   -0.003855   -0.451646
      4          6           0        0.818764    1.177549   -0.721307
      5          6           0       -0.747663    1.234041    1.071410
      6          6           0       -1.420545    0.062181    1.099040
      7          1           0       -1.160846   -2.246374   -0.499749
      8          1           0        1.227589   -2.105965   -0.018318
      9          1           0        2.436725   -0.000402   -0.067971
     10          1           0        1.343985    2.115286   -0.602685
     11          1           0        0.096245    1.411099    1.719797
     12          1           0       -2.395316   -0.036474    0.641573
     13          1           0       -1.134586   -0.732515    1.770338
     14          1           0       -1.163482    2.108950    0.590989
     15          1           0       -0.108279    1.231066   -1.270499
     16          1           0       -1.143196   -0.570995   -1.227682
 ---------------------------------------------------------------------
                    Distance matrix (angstroms):
                    1          2          3          4          5
     1  C    0.000000
     2  C    1.354429   0.000000
     3  C    2.441559   1.429667   0.000000
     4  C    2.886594   2.441641   1.354478   0.000000
[...]
 Calling FoFJK, ICntrl=    100127 FMM=F ISym2X=0 I1Cent= 0 IOpClX= 0 NMat=1 NMatS=1 NMatT=0.
 -------------------------------------------------------------------
 Center     Atomic                   Forces (Hartrees/Bohr)
 Number     Number              X              Y              Z
 -------------------------------------------------------------------
      1        6           0.000092997   -0.000054222   -0.000045693
      2        6           0.000081833   -0.000009153    0.000009008
      3        6           0.000090106   -0.000044129   -0.000131141
      4        6           0.000059686   -0.000024878   -0.000087019
      5        6          -0.000084274    0.000053770    0.000189616
      6        6          -0.000225836    0.000075320    0.000053698
      7        1           0.000008417    0.000006794    0.000000892
      8        1          -0.000004536    0.000019116    0.000002851
      9        1          -0.000010002   -0.000004760   -0.000025302
     10        1          -0.000005099   -0.000011438   -0.000015319
     11        1          -0.000058418   -0.000004140   -0.000020725
     12        1           0.000032850    0.000015602    0.000041988
     13        1          -0.000066791    0.000075029   -0.000049402
     14        1           0.000040572   -0.000064630    0.000071039
     15        1           0.000027093   -0.000003349    0.000005872
     16        1           0.000021401   -0.000024933   -0.000000364
 -------------------------------------------------------------------
 Cartesian Forces:  Max     0.000225836 RMS     0.000064377
 IRC-IRC-IRC-IRC-IRC-IRC-IRC-IRC-IRC-IRC-IRC-IRC-IRC-IRC-IRC-IRC-IRC-IRC
 Pt 75 Step number   1 out of a maximum of  20
 Modified Bulirsch-Stoer Extrapolation Cycles:
    EPS =    0.000010000000000
      PEZero:  N= 2 I= 1 D=  7.58D-04 Err=  1.20D-02
      PEZero:  N= 3 I= 2 D=  7.58D-04 Err=  1.79D-02
      PEZero:  N= 3 I= 1 D=  1.52D-03 Err=  1.48D-02
      PEZero:  N= 4 I= 3 D=  3.79D-04 Err=  2.86D-02
      PEZero:  N= 4 I= 2 D=  1.14D-03 Err=  2.02D-02
      PEZero:  N= 4 I= 1 D=  1.90D-03 Err=  1.54D-02
      PEZero:  N= 5 I= 4 D=  3.79D-04 Err=  3.39D-02
      PEZero:  N= 5 I= 3 D=  7.58D-04 Err=  2.23D-02
      PEZero:  N= 5 I= 2 D=  1.52D-03 Err=  1.22D-02
      PEZero:  N= 5 I= 1 D=  2.28D-03 Err=  7.06D-03
      PEZero:  N= 6 I= 5 D=  1.90D-04 Err=  1.06D-05
      PEZero:  N= 6 I= 4 D=  5.69D-04 Err=  3.39D-02
      PEZero:  N= 7 I= 6 D=  1.90D-04 Err=  7.06D-06
      PEZero:  N= 7 I= 5 D=  3.79D-04 Err=  4.62D-09
      PEZero:  N= 7 I= 4 D=  7.58D-04 Err=  1.11D-02
 Maximum DWI energy   std dev =  0.000000042 at pt    17
 Maximum DWI gradient std dev =  0.155976018 at pt    54
 CORRECTOR INTEGRATION CONVERGENCE:
   Recorrection delta-x convergence threshold:    0.010000
   Delta-x Convergence Met
 Point Number:  75          Path Number:   1
   CHANGE IN THE REACTION COORDINATE =    0.14550
   NET REACTION COORDINATE UP TO THIS POINT =   10.92396
  # OF POINTS ALONG THE PATH =  75
  # OF STEPS =   1

 PES minimum detected on this side of the pathway.
    Magnitude of the gradient =      0.0001477
 Calculation of FORWARD path complete.
 Reaction path calculation complete.
 
 Energies reported relative to the TS energy of        -234.433258
 --------------------------------------------------------------------------
    Summary of reaction path following
 --------------------------------------------------------------------------
                        Energy    RxCoord
   1                    0.00000   0.00000
   2                   -0.00012   0.14570
   3                   -0.00044   0.29137
   4                   -0.00096   0.43704
   5                   -0.00164   0.58272
   6                   -0.00248   0.72840
   7                   -0.00343   0.87408
   8                   -0.00449   1.01976
   9                   -0.00562   1.16544
  10                   -0.00681   1.31112
  11                   -0.00802   1.45680
  12                   -0.00924   1.60248
  13                   -0.01046   1.74816
  14                   -0.01166   1.89384
  15                   -0.01283   2.03952
  16                   -0.01398   2.18521
  17                   -0.01508   2.33089
  18                   -0.01615   2.47658
  19                   -0.01717   2.62227
  20                   -0.01815   2.76796
  21                   -0.01907   2.91364
  22                   -0.01995   3.05933
  23                   -0.02077   3.20502
  24                   -0.02155   3.35071
  25                   -0.02228   3.49640
  26                   -0.02297   3.64209
  27                   -0.02361   3.78778
  28                   -0.02422   3.93346
  29                   -0.02478   4.07915
  30                   -0.02530   4.22484
  31                   -0.02579   4.37053
  32                   -0.02624   4.51621
  33                   -0.02666   4.66190
  34                   -0.02705   4.80759
  35                   -0.02740   4.95327
  36                   -0.02773   5.09896
  37                   -0.02803   5.24465
  38                   -0.02830   5.39033
  39                   -0.02855   5.53602
  40                   -0.02878   5.68171
  41                   -0.02899   5.82739
  42                   -0.02919   5.97308
  43                   -0.02936   6.11876
  44                   -0.02952   6.26444
  45                   -0.02966   6.41012
  46                   -0.02979   6.55579
  47                   -0.02991   6.70146
  48                   -0.03001   6.84713
  49                   -0.03011   6.99279
  50                   -0.03019   7.13846
  51                   -0.03027   7.28413
  52                   -0.03034   7.42980
  53                   -0.03040   7.57547
  54                   -0.03045   7.72114
  55                   -0.03050   7.86681
  56                   -0.03055   8.01248
  57                   -0.03059   8.15813
  58                   -0.03063   8.30378
  59                   -0.03066   8.44942
  60                   -0.03069   8.59502
  61                   -0.03072   8.74054
  62                   -0.03075   8.88596
  63                   -0.03078   9.03138
  64                   -0.03082   9.17690
  65                   -0.03086   9.32250
  66                   -0.03090   9.46815
  67                   -0.03094   9.61380
  68                   -0.03099   9.75943
  69                   -0.03103   9.90506
  70                   -0.03107  10.05068
  71                   -0.03111  10.19626
  72                   -0.03114  10.34180
  73                   -0.03117  10.48736
  74                   -0.03120  10.63292
  75                   -0.03122  10.77846
  76                   -0.03124  10.92396
 --------------------------------------------------------------------------
 
 Total number of points:                   75
 Total number of gradient calculations:    76
 Total number of Hessian calculations:     76
 IRC-IRC-IRC-IRC-IRC-IRC-IRC-IRC-IRC-IRC-IRC-IRC-IRC-IRC-IRC-IRC-IRC-IRC
                          Input orientation:                          
 ---------------------------------------------------------------------
 Center     Atomic      Atomic             Coordinates (Angstroms)
 Number     Number       Type             X           Y           Z
 ---------------------------------------------------------------------
      1          6           0       -0.375401   -1.557492   -0.965601
      2          6           0        0.861378   -1.341615   -0.518761
      3          6           0        1.642505   -0.114306   -0.747604
      4          6           0        1.123691    1.094280   -0.965242
      5          6           0       -1.205827    1.482154    1.573855
      6          6           0       -1.872994    0.336080    1.530029
      7          1           0       -0.904645   -2.474340   -0.745897
      8          1           0        1.360092   -2.118950    0.050338
      9          1           0        2.720644   -0.229615   -0.718531
     10          1           0        1.753449    1.954423   -1.145537
     11          1           0       -0.158325    1.519840    1.841769
     12          1           0       -2.919681    0.293113    1.256812
     13          1           0       -1.396934   -0.606939    1.761118
     14          1           0       -1.676810    2.428183    1.338222
     15          1           0        0.054937    1.264328   -0.954157
     16          1           0       -0.896798   -0.828647   -1.572932
 ---------------------------------------------------------------------
                    Distance matrix (angstroms):
                    1          2          3          4          5
     1  C    0.000000
     2  C    1.332626   0.000000
     3  C    2.490433   1.472689   0.000000
     4  C    3.046174   2.490328   1.333123   0.000000
     5  C    4.046961   4.077505   4.006351   3.467581   0.000000
     6  C    3.472257   3.806441   4.212979   3.972577   1.326845
     7  H    1.081194   2.110331   3.472425   4.110634   4.596281
     8  H    2.087895   1.084822   2.176020   3.378185   4.676857
     9  H    3.377840   2.175620   1.084677   2.088977   4.858226
    10  H    4.110710   3.471672   2.109574   1.081179   4.046659
    11  H    4.171142   3.847053   3.552221   3.115121   1.081877
    12  H    3.851911   4.485688   4.999721   4.682761   2.109889
    13  H    3.063018   3.292046   3.971720   4.084206   2.106158
    14  H    4.784022   4.909394   4.672555   3.863683   1.082737
    15  H    2.854469   2.762400   2.112740   1.082254   2.833340
    16  H    1.082553   2.113195   2.763966   2.854700   3.916320
                    6          7          8          9         10
     6  C    0.000000
     7  H    3.743794   0.000000
     8  H    4.320822   2.426793   0.000000
     9  H    5.145634   4.264067   2.451907   0.000000
    10  H    4.788401   5.180649   4.263475   2.426484   0.000000
    11  H    2.106789   4.817311   4.330774   4.231335   3.573197
    12  H    1.082611   3.966107   5.058664   5.999041   5.510842
    13  H    1.081351   3.164594   3.579684   4.821357   4.993410
    14  H    2.110017   5.382798   5.617636   5.534593   4.261477
    15  H    3.278680   3.865464   3.762846   3.064862   1.843313
    16  H    3.455128   1.841835   3.064872   3.764934   3.866776
                   11         12         13         14         15
    11  H    0.000000
    12  H    3.077681   0.000000
    13  H    2.462488   1.839341   0.000000
    14  H    1.839685   2.471817   3.077196   0.000000
    15  H    2.815664   3.831448   3.603094   3.099759   0.000000
    16  H    4.209621   3.654839   3.378636   4.437361   2.381014
                   16
    16  H    0.000000
 Symmetry turned off by external request.
 Stoichiometry    C6H10
 Framework group  C1[X(C6H10)]
 Deg. of freedom    42
 Full point group                 C1      NOp   1
 Rotational constants (GHZ):           4.1144288           1.9017145           1.4413471

 **********************************************************************

            Population analysis using the SCF Density.

 **********************************************************************

 Alpha  occ. eigenvalues --  -10.54992 -10.54941 -10.53866 -10.53706 -10.53679
 Alpha  occ. eigenvalues --  -10.53562  -0.91121  -0.86090  -0.82942  -0.70470
 Alpha  occ. eigenvalues --   -0.65960  -0.60923  -0.57055  -0.54225  -0.51070
 Alpha  occ. eigenvalues --   -0.49476  -0.48732  -0.43272  -0.41427  -0.40943
 Alpha  occ. eigenvalues --   -0.38121  -0.32910  -0.29174
 Alpha virt. eigenvalues --    0.00213   0.04326   0.08762   0.10077   0.10680
 Alpha virt. eigenvalues --    0.11423   0.12067   0.13359   0.14135   0.15983
 Alpha virt. eigenvalues --    0.16437   0.18265   0.19892   0.21128   0.23023
 Alpha virt. eigenvalues --    0.23509   0.24872   0.25848   0.26787   0.27919
 Alpha virt. eigenvalues --    0.28230   0.28884   0.31287   0.32647   0.35221
 Alpha virt. eigenvalues --    0.36901   0.37410   0.38492   0.39567   0.39869
 Alpha virt. eigenvalues --    0.42558   0.44811   0.46154   0.46587   0.47804
 Alpha virt. eigenvalues --    0.48109   0.49340   0.51448   0.51795   0.51995
 Alpha virt. eigenvalues --    0.53219   0.55163   0.57429   0.57997   0.60798
 Alpha virt. eigenvalues --    0.62099   0.64292   0.69977   0.70715   0.72561
 Alpha virt. eigenvalues --    0.73863   1.38022   1.41886   1.46394   1.50951
 Alpha virt. eigenvalues --    1.52976   1.53550   1.53825   1.54799   1.55825
 Alpha virt. eigenvalues --    1.57033   1.57976   1.58355   1.58513   1.60853
 Alpha virt. eigenvalues --    1.63185   1.63587   1.64271   1.66367   1.67362
 Alpha virt. eigenvalues --    1.68839   1.80831   1.82662   1.94380   1.95422
 Alpha virt. eigenvalues --    2.26769   2.32011   2.33958   2.37630   2.38146
 Alpha virt. eigenvalues --    2.41856   2.44903   2.56726   2.60067   2.63642
 Alpha virt. eigenvalues --   21.37238  21.48344  21.61082  21.97595  22.03094
 Alpha virt. eigenvalues --   22.09673
          Condensed to atoms (all electrons):
               1          2          3          4          5          6
     1  C    5.049015   0.625849  -0.031054  -0.003576  -0.007323  -0.010334
     2  C    0.625849   5.002446   0.289663  -0.020680   0.004549   0.002496
     3  C   -0.031054   0.289663   5.003052   0.616287  -0.004796  -0.001710
     4  C   -0.003576  -0.020680   0.616287   5.064994   0.003126  -0.000926
     5  C   -0.007323   0.004549  -0.004796   0.003126   4.952758   0.670299
     6  C   -0.010334   0.002496  -0.001710  -0.000926   0.670299   4.932249
     7  H    0.373141  -0.025479   0.014533  -0.000961   0.000220  -0.001473
     8  H   -0.027169   0.347844  -0.038100   0.008003   0.000013   0.000407
     9  H    0.009017  -0.041812   0.351327  -0.026084  -0.000008  -0.000061
    10  H   -0.000083   0.013750  -0.017694   0.366073   0.000148   0.000195
    11  H   -0.000392   0.000120  -0.000409   0.000323   0.380227  -0.025045
    12  H    0.000177  -0.000138   0.000063   0.000106  -0.033577   0.385672
    13  H    0.004097  -0.000239  -0.000764  -0.001122  -0.023627   0.375525
    14  H    0.000294   0.000086  -0.000001  -0.000802   0.386143  -0.035729
    15  H    0.010907  -0.019081  -0.058416   0.394887  -0.001015  -0.003949
    16  H    0.387872  -0.049327  -0.013874   0.001676  -0.000734   0.003384
               7          8          9         10         11         12
     1  C    0.373141  -0.027169   0.009017  -0.000083  -0.000392   0.000177
     2  C   -0.025479   0.347844  -0.041812   0.013750   0.000120  -0.000138
     3  C    0.014533  -0.038100   0.351327  -0.017694  -0.000409   0.000063
     4  C   -0.000961   0.008003  -0.026084   0.366073   0.000323   0.000106
     5  C    0.000220   0.000013  -0.000008   0.000148   0.380227  -0.033577
     6  C   -0.001473   0.000407  -0.000061   0.000195  -0.025045   0.385672
     7  H    0.533677  -0.013381  -0.000294  -0.000000  -0.000017   0.000003
     8  H   -0.013381   0.543529  -0.000766  -0.000339  -0.000059  -0.000014
     9  H   -0.000294  -0.000766   0.542362  -0.013346   0.000025   0.000000
    10  H   -0.000000  -0.000339  -0.013346   0.531775   0.000388   0.000006
    11  H   -0.000017  -0.000059   0.000025   0.000388   0.526403   0.008155
    12  H    0.000003  -0.000014   0.000000   0.000006   0.008155   0.544125
    13  H   -0.000170   0.000243  -0.000010  -0.000013  -0.013630  -0.039976
    14  H   -0.000001   0.000003  -0.000001  -0.000053  -0.039281  -0.014011
    15  H    0.000014   0.000616   0.008039  -0.036635  -0.002102  -0.000207
    16  H   -0.036542   0.007998   0.000527   0.000090   0.000092   0.000013
              13         14         15         16
     1  C    0.004097   0.000294   0.010907   0.387872
     2  C   -0.000239   0.000086  -0.019081  -0.049327
     3  C   -0.000764  -0.000001  -0.058416  -0.013874
     4  C   -0.001122  -0.000802   0.394887   0.001676
     5  C   -0.023627   0.386143  -0.001015  -0.000734
     6  C    0.375525  -0.035729  -0.003949   0.003384
     7  H   -0.000170  -0.000001   0.000014  -0.036542
     8  H    0.000243   0.000003   0.000616   0.007998
     9  H   -0.000010  -0.000001   0.008039   0.000527
    10  H   -0.000013  -0.000053  -0.036635   0.000090
    11  H   -0.013630  -0.039281  -0.002102   0.000092
    12  H   -0.039976  -0.014011  -0.000207   0.000013
    13  H    0.537168   0.008567   0.000304  -0.000072
    14  H    0.008567   0.543204   0.000707  -0.000036
    15  H    0.000304   0.000707   0.519697   0.001150
    16  H   -0.000072  -0.000036   0.001150   0.519697
 Mulliken charges:
               1
     1  C   -0.380439
     2  C   -0.130047
     3  C   -0.108107
     4  C   -0.401323
     5  C   -0.326405
     6  C   -0.291001
     7  H    0.156728
     8  H    0.171170
     9  H    0.171083
    10  H    0.155738
    11  H    0.165201
    12  H    0.149604
    13  H    0.153718
    14  H    0.150910
    15  H    0.185083
    16  H    0.178086
 Sum of Mulliken charges =  -0.00000
 Mulliken charges with hydrogens summed into heavy atoms:
               1
     1  C   -0.045624
     2  C    0.041124
     3  C    0.062976
     4  C   -0.060502
     5  C   -0.010294
     6  C    0.012321
 APT charges:
               1
     1  C   -0.823416
     2  C   -0.459216
     3  C   -0.640257
     4  C   -0.783362
     5  C   -0.749416
     6  C   -0.757678
     7  H    0.540391
     8  H    0.507580
     9  H    0.568616
    10  H    0.606294
    11  H    0.210562
    12  H    0.545275
    13  H    0.194226
    14  H    0.554132
    15  H    0.196490
    16  H    0.289780
 Sum of APT charges =  -0.00000
 APT charges with hydrogens summed into heavy atoms:
               1
     1  C    0.006756
     2  C    0.048364
     3  C   -0.071641
     4  C    0.019421
     5  C    0.015278
     6  C   -0.018178
 Electronic spatial extent (au):  <R**2>=            867.7984
 Charge=             -0.0000 electrons
 Dipole moment (field-independent basis, Debye):
    X=              0.0625    Y=             -0.0583    Z=              0.0046  Tot=              0.0856
 Quadrupole moment (field-independent basis, Debye-Ang):
   XX=            -36.3012   YY=            -36.4953   ZZ=            -43.9584
   XY=              0.4449   XZ=              1.9605   YZ=             -2.0453
 Traceless Quadrupole moment (field-independent basis, Debye-Ang):
   XX=              2.6171   YY=              2.4230   ZZ=             -5.0401
   XY=              0.4449   XZ=              1.9605   YZ=             -2.0453
 Octapole moment (field-independent basis, Debye-Ang**2):
  XXX=              4.7880  YYY=              0.2851  ZZZ=             -3.6808  XYY=             -0.0496
  XXY=             -1.1918  XXZ=             -3.0764  XZZ=              2.6132  YZZ=             -0.7096
  YYZ=              1.7509  XYZ=             -1.0102
 Hexadecapole moment (field-independent basis, Debye-Ang**3):
 XXXX=           -440.5504 YYYY=           -381.2598 ZZZZ=           -402.9078 XXXY=             31.4806
 XXXZ=            135.5148 YYYX=             35.5505 YYYZ=            -83.7361 ZZZX=            167.6690
 ZZZY=            -92.2610 XXYY=           -136.7453 XXZZ=           -153.0814 YYZZ=           -135.2255
 XXYZ=            -30.6016 YYXZ=             47.2812 ZZXY=             20.5192
 N-N= 2.033051945579D+02 E-N=-9.492479595190D+02  KE= 2.334170078358D+02
  Exact polarizability:   0.000   0.000   0.000   0.000   0.000   0.000
 Approx polarizability:  87.280  10.883  99.724   8.150  -4.445  50.961

 This type of calculation cannot be archived.


 ERWIN WITH HIS PSI CAN DO
 CALCULATIONS QUITE A FEW.
 BUT ONE THING HAS NOT BEEN SEEN
 JUST WHAT DOES PSI REALLY MEAN.
 -- WALTER HUCKEL, TRANS. BY FELIX BLOCH
 Job cpu time:       0 days  8 hours 40 minutes 25.1 seconds.
 Elapsed time:       0 days  0 hours 33 minutes  8.3 seconds.
 File lengths (MBytes):  RWF=     30 Int=      0 D2E=      0 Chk=      5 Scr=      1
 Normal termination of Gaussian 16 at Wed Apr 15 19:00:01 2020.
