 Entering Gaussian System, Link 0=g16
 Initial command:
 /opt/g16/l1.exe "/scratch/542/Gau-445700.inp" -scrdir="/scratch/542/"
 Entering Link 1 = /opt/g16/l1.exe PID=    445701.
  
 Copyright (c) 1988-2017, Gaussian, Inc.  All Rights Reserved.
  
 This is part of the Gaussian(R) 16 program.  It is based on
 the Gaussian(R) 09 system (copyright 2009, Gaussian, Inc.),
 the Gaussian(R) 03 system (copyright 2003, Gaussian, Inc.),
 the Gaussian(R) 98 system (copyright 1998, Gaussian, Inc.),
 the Gaussian(R) 94 system (copyright 1995, Gaussian, Inc.),
 the Gaussian 92(TM) system (copyright 1992, Gaussian, Inc.),
 the Gaussian 90(TM) system (copyright 1990, Gaussian, Inc.),
 the Gaussian 88(TM) system (copyright 1988, Gaussian, Inc.),
 the Gaussian 86(TM) system (copyright 1986, Carnegie Mellon
 University), and the Gaussian 82(TM) system (copyright 1983,
 Carnegie Mellon University). Gaussian is a federally registered
 trademark of Gaussian, Inc.
  
 This software contains proprietary and confidential information,
 including trade secrets, belonging to Gaussian, Inc.
  
 This software is provided under written license and may be
 used, copied, transmitted, or stored only in accord with that
 written license.
  
 The following legend is applicable only to US Government
 contracts under FAR:
  
                    RESTRICTED RIGHTS LEGEND
  
 Use, reproduction and disclosure by the US Government is
 subject to restrictions as set forth in subparagraphs (a)
 and (c) of the Commercial Computer Software - Restricted
 Rights clause in FAR 52.227-19.
  
 Gaussian, Inc.
 340 Quinnipiac St., Bldg. 40, Wallingford CT 06492
  
  
 ---------------------------------------------------------------
 Warning -- This program may not be used in any manner that
 competes with the business of Gaussian, Inc. or will provide
 assistance to any competitor of Gaussian, Inc.  The licensee
 of this program is prohibited from giving any competitor of
 Gaussian, Inc. access to this program.  By using this program,
 the user acknowledges that Gaussian, Inc. is engaged in the
 business of creating and licensing software in the field of
 computational chemistry and represents and warrants to the
 licensee that it is not a competitor of Gaussian, Inc. and that
 it will not use this program in any manner prohibited above.
 ---------------------------------------------------------------
  

 Cite this work as:
 Gaussian 16, Revision B.01,
 M. J. Frisch, G. W. Trucks, H. B. Schlegel, G. E. Scuseria, 
 M. A. Robb, J. R. Cheeseman, G. Scalmani, V. Barone, 
 G. A. Petersson, H. Nakatsuji, X. Li, M. Caricato, A. V. Marenich, 
 J. Bloino, B. G. Janesko, R. Gomperts, B. Mennucci, H. P. Hratchian, 
 J. V. Ortiz, A. F. Izmaylov, J. L. Sonnenberg, D. Williams-Young, 
 F. Ding, F. Lipparini, F. Egidi, J. Goings, B. Peng, A. Petrone, 
 T. Henderson, D. Ranasinghe, V. G. Zakrzewski, J. Gao, N. Rega, 
 G. Zheng, W. Liang, M. Hada, M. Ehara, K. Toyota, R. Fukuda, 
 J. Hasegawa, M. Ishida, T. Nakajima, Y. Honda, O. Kitao, H. Nakai, 
 T. Vreven, K. Throssell, J. A. Montgomery, Jr., J. E. Peralta, 
 F. Ogliaro, M. J. Bearpark, J. J. Heyd, E. N. Brothers, K. N. Kudin, 
 V. N. Staroverov, T. A. Keith, R. Kobayashi, J. Normand, 
 K. Raghavachari, A. P. Rendell, J. C. Burant, S. S. Iyengar, 
 J. Tomasi, M. Cossi, J. M. Millam, M. Klene, C. Adamo, R. Cammi, 
 J. W. Ochterski, R. L. Martin, K. Morokuma, O. Farkas, 
 J. B. Foresman, and D. J. Fox, Gaussian, Inc., Wallingford CT, 2016.
 
 ******************************************
 Gaussian 16:  ES64L-G16RevB.01 20-Dec-2017
                15-Apr-2020 
 ******************************************
 %nprocshared=16
 Will use up to   16 processors via shared memory.
 %mem=24GB
 %chk=dairc10-testf.chk
 ----------------------------------------------------------------------
 # M062X/ChkBasis NoSymm SCF=(NoVarAcc,XQC) Int=(Grid=Ultrafine,acc2e=1
 1) Geom=AllCheck Guess=Read IRC=(Forward,CalcAll,Phase=(1,6),MaxPoints
 =300,StepSize=5)
 ----------------------------------------------------------------------
 1/10=4,18=10,22=1,26=4,29=7,38=1,39=5,42=300,44=3,71=1,101=1,102=6,172=1/1,23;
 2/12=2,15=1,29=1,40=1/2;
 3/5=7,6=2,11=2,14=-4,25=1,27=11,30=1,67=1,71=2,74=-55,75=-5,116=-2,140=1/1,2,3;
 4/5=1/1;
 5/5=2,8=3,13=1,38=6,87=11/2,8;
 8/6=4,10=90,11=11,87=11/1;
 11/6=1,8=1,9=11,15=111,16=1,31=1,87=11/1,2,10;
 10/6=1,13=1,31=1,87=11/2;
 6/7=2,8=2,9=2,10=2,18=1,28=1,87=11/1;
 7/10=1,25=1,30=1,87=11/1,2,3,16;
 1/10=4,18=10,22=1,26=4,39=5,42=300,44=3,71=1,101=1,102=6/23(2);
 2/15=1,29=1/2;
 99/5=20/99;
 2/15=1,29=1/2;
 3/5=7,6=1,11=2,14=-2,25=1,27=11,30=1,71=2,74=-55,75=-5,82=7,140=1/1,2,3;
 4/5=5,16=3,69=1/1;
 5/5=2,8=3,13=1,38=1,87=11/2,8;
 8/6=4,10=90,11=11,87=11/1;
 11/6=1,8=1,9=11,15=111,16=1,31=1,87=11/1,2,10;
 10/6=1,13=1,31=1,87=11/2;
 7/10=1,25=1,30=1,87=11/1,2,3,16;
 1/10=4,18=10,22=1,26=4,39=5,42=300,44=3,71=1,101=1,102=6/23(-8);
 2/15=1,29=1/2;
 6/7=2,8=2,9=2,10=2,18=1,19=2,28=1,87=11/1;
 99/5=20/99;
 Structure from the checkpoint file:  "dairc10-testf.chk"
 ----------------------------------------------------------------------
 Geometrical optimization for a DA reaction C2H2(NH2)2 + C4H4(NH2)2 -->
  C6H6(NH2)4
 ----------------------------------------------------------------------
 Charge =  0 Multiplicity = 1
 Redundant internal coordinates found in file.  (old form).
 C,0,-0.0392663473,1.2699321298,-0.8249388043
 C,0,-1.2609633235,0.6161216526,-0.7612243639
 C,0,-1.2885242829,-0.7960005947,-0.70310034
 C,0,-0.1231256583,-1.5220554817,-0.8394833225
 C,0,1.3145118288,-0.715021362,0.7923157758
 C,0,1.0718403035,0.6649166733,0.8550108629
 H,0,-0.0351226849,2.3533267778,-0.7500235665
 H,0,-0.1336526928,-2.5870931649,-0.6375776669
 H,0,0.794784044,-1.3835832124,1.4574597672
 H,0,0.3278557612,1.0001503855,1.56792329
 H,0,0.6722608197,-1.180262308,-1.4821669365
 H,0,0.769688374,0.8677148359,-1.4152311696
 N,0,2.2192788889,1.5014292211,0.6045010587
 H,0,2.0324047703,2.4572681565,0.3436011947
 H,0,2.9791547874,1.4072062901,1.2680880048
 N,0,2.5669675264,-1.1563251848,0.3317719245
 H,0,3.0879920009,-0.495621811,-0.2257922372
 H,0,2.6782108302,-2.1285129636,0.0989841629
 N,0,-2.4438697987,1.294921923,-0.3678129147
 H,0,-2.4312897334,2.297979341,-0.4668317318
 H,0,-3.3047015568,0.8642589061,-0.677951448
 N,0,-2.4943507479,-1.3860499308,-0.2560383851
 H,0,-2.560135246,-2.3893100422,-0.2964103909
 H,0,-2.9483056727,-0.9539313465,0.5377479263
 Recover connectivity data from disk.
 IRC-IRC-IRC-IRC-IRC-IRC-IRC-IRC-IRC-IRC-IRC-IRC-IRC-IRC-IRC-IRC-IRC-IRC
 ------------------------------------------------------------------------
 INPUT DATA FOR L123
 ------------------------------------------------------------------------
 GENERAL PARAMETERS:
 Rxn path following direction = Forward
 Maximum points per path      = 300
 Step size                    =   0.050 bohr
 Integration scheme           = HPC                                 
    Redo corrector integration= Yes                                 
    DWI Weight Power          =  2
    DWI will use Hessian update vectors when possible.
    Max correction cycles     =  20
 Initial Hessian              = CalcFC
 Hessian evaluation           = Analytic at all predictor steps
                              = Update at all corrector steps
 Hessian updating method      = Bofill                              
 ------------------------------------------------------------------------
 IRC-IRC-IRC-IRC-IRC-IRC-IRC-IRC-IRC-IRC-IRC-IRC-IRC-IRC-IRC-IRC-IRC-IRC
                          Input orientation:                          
 ---------------------------------------------------------------------
 Center     Atomic      Atomic             Coordinates (Angstroms)
 Number     Number       Type             X           Y           Z
 ---------------------------------------------------------------------
      1          6           0       -0.039266    1.269932   -0.824939
      2          6           0       -1.260963    0.616122   -0.761224
      3          6           0       -1.288524   -0.796001   -0.703100
      4          6           0       -0.123126   -1.522055   -0.839483
      5          6           0        1.314512   -0.715021    0.792316
      6          6           0        1.071840    0.664917    0.855011
      7          1           0       -0.035123    2.353327   -0.750024
      8          1           0       -0.133653   -2.587093   -0.637578
      9          1           0        0.794784   -1.383583    1.457460
     10          1           0        0.327856    1.000150    1.567923
     11          1           0        0.672261   -1.180262   -1.482167
     12          1           0        0.769688    0.867715   -1.415231
     13          7           0        2.219279    1.501429    0.604501
     14          1           0        2.032405    2.457268    0.343601
     15          1           0        2.979155    1.407206    1.268088
     16          7           0        2.566968   -1.156325    0.331772
     17          1           0        3.087992   -0.495622   -0.225792
     18          1           0        2.678211   -2.128513    0.098984
     19          7           0       -2.443870    1.294922   -0.367813
     20          1           0       -2.431290    2.297979   -0.466832
     21          1           0       -3.304702    0.864259   -0.677951
     22          7           0       -2.494351   -1.386050   -0.256038
     23          1           0       -2.560135   -2.389310   -0.296410
     24          1           0       -2.948306   -0.953931    0.537748
 ---------------------------------------------------------------------
                    Distance matrix (angstroms):
                    1          2          3          4          5
     1  C    0.000000
     2  C    1.387109   0.000000
     3  C    2.417347   1.413587   0.000000
     4  C    2.793285   2.423345   1.379822   0.000000
     5  C    2.896251   3.289149   3.003102   2.319671   0.000000
     6  C    2.103053   2.838410   3.183286   3.013653   1.402515
     7  H    1.085990   2.126192   3.389909   3.877413   3.689862
     8  H    3.862727   3.398044   2.132143   1.084058   2.765218
     9  H    3.598073   3.625945   3.058341   2.477434   1.076805
    10  H    2.435847   2.845479   3.316081   3.515752   2.125293
    11  H    2.634705   2.735710   2.144593   1.078195   2.408777
    12  H    1.079181   2.148155   2.740679   2.615264   2.770406
    13  N    2.682893   3.842013   4.392344   4.088204   2.401360
    14  H    2.658397   3.931505   4.765282   4.677715   3.283312
    15  H    3.675659   4.766815   5.191608   4.758842   2.738840
    16  N    3.743950   4.357667   4.008193   2.956721   1.405523
    17  H    3.640866   4.520628   4.412703   3.426581   2.056675
    18  H    4.448342   4.877507   4.260741   3.015957   2.082869
    19  N    2.447796   1.419440   2.412301   3.680175   4.417149
    20  H    2.628098   2.070018   3.306728   4.478745   4.969372
    21  H    3.293819   2.060430   2.611908   3.980328   5.098328
    22  N    3.661329   2.405234   1.414935   2.445734   4.007089
    23  H    4.474838   3.307041   2.078708   2.643118   4.359066
    24  H    3.907044   2.645661   2.078346   3.193928   4.277090
                    6          7          8          9         10
     6  C    0.000000
     7  H    2.579192   0.000000
     8  H    3.775792   4.942682   0.000000
     9  H    2.153150   4.418849   2.588361   0.000000
    10  H    1.083577   2.708453   4.236218   2.431545   0.000000
    11  H    3.004455   3.677319   1.828114   2.949196   3.765085
    12  H    2.299222   1.815837   3.654650   3.649839   3.018603
    13  N    1.441917   2.764560   4.878018   3.328667   2.181042
    14  H    2.096842   2.341258   5.576746   4.186230   2.554925
    15  H    2.087936   3.748838   5.410689   3.549062   2.699071
    16  N    2.413733   4.500979   3.206257   2.111742   3.345456
    17  H    2.565122   4.259715   3.863006   2.980036   3.615674
    18  H    3.309872   5.307531   2.942685   2.438785   4.179771
    19  N    3.775238   2.658640   4.525474   4.582018   3.393586
    20  H    4.084860   2.413478   5.401132   5.259691   3.665716
    21  H    4.641533   3.593419   4.687111   5.139899   4.272926
    22  N    4.261292   4.502751   2.675999   3.708705   4.121364
    23  H    4.883167   5.392036   2.458319   3.917018   4.827491
    24  H    4.345446   4.591617   3.459896   3.878297   3.951320
                   11         12         13         14         15
    11  H    0.000000
    12  H    2.051386   0.000000
    13  N    3.733486   2.565585   0.000000
    14  H    4.291276   2.686005   1.008275   0.000000
    15  H    4.425003   3.517527   1.013231   1.689272   0.000000
    16  N    2.623139   3.221641   2.694240   3.652938   2.760123
    17  H    2.807662   2.940745   2.330721   3.187167   2.421627
    18  H    2.724528   3.861695   3.693595   4.637488   3.736132
    19  N    4.132625   3.406838   4.767913   4.679123   5.665508
    20  H    4.770859   3.631994   4.838392   4.539465   5.751203
    21  H    4.543463   4.140561   5.706578   5.662681   6.600660
    22  N    3.401936   4.132449   5.594316   5.968432   6.331232
    23  H    3.649137   4.790375   6.228346   6.707485   6.895283
    24  H    4.152082   4.577773   5.721642   6.039988   6.422083
                   16         17         18         19         20
    16  N    0.000000
    17  H    1.009393   0.000000
    18  H    1.005840   1.714565   0.000000
    19  N    5.621968   5.816160   6.178472   0.000000
    20  H    6.128015   6.190701   6.783876   1.008011   0.000000
    21  H    6.291168   6.551355   6.734653   1.011280   1.692033
    22  N    5.100513   5.652993   5.237622   2.683776   3.690594
    23  H    5.310560   5.957548   5.259717   3.686758   4.692156
    24  H    5.522828   6.101633   5.764533   2.476255   3.442588
                   21         22         23         24
    21  H    0.000000
    22  N    2.428697   0.000000
    23  H    3.359414   1.006225   0.000000
    24  H    2.216023   1.011384   1.704936   0.000000
 Symmetry turned off by external request.
 Stoichiometry    C6H14N4
 Framework group  C1[X(C6H14N4)]
 Deg. of freedom    66
 Full point group                 C1      NOp   1
 Rotational constants (GHZ):           1.9879788           0.9414771           0.7113333
 Basis read from chk: "dairc10-testf.chk" (5D, 7F)
 Pseudo-potential data read from chk file.
   182 basis functions,   360 primitive gaussians,   182 cartesian basis functions
    39 alpha electrons       39 beta electrons
       nuclear repulsion energy       560.1791488562 Hartrees.
 NAtoms=   24 NActive=   24 NUniq=   24 SFac= 1.00D+00 NAtFMM=   60 NAOKFM=F Big=F
 Integral buffers will be    131072 words long.
 Raffenetti 2 integral format.
 Two-electron integral symmetry is turned off.
 One-electron integrals computed using PRISM.
   1 Symmetry operations used in ECPInt.
 ECPInt:  NShTT=    7503 NPrTT=   29182 LenC2=    7211 LenP2D=   20241.
 LDataN:  DoStor=T MaxTD1= 2 Len=   12
 NBasis=   182 RedAO= T EigKep=  4.65D-05  NBF=   182
 NBsUse=   182 1.00D-06 EigRej= -1.00D+00 NBFU=   182
 Initial guess from the checkpoint file:  "dairc10-testf.chk"
 B after Tr=    -0.026355   -0.023869   -0.178791
         Rot=   -0.114331   -0.029832    0.992871    0.015665 Ang=-193.13 deg.
 Requested convergence on RMS density matrix=1.00D-08 within  32 cycles.
 Requested convergence on MAX density matrix=1.00D-06.
 Requested convergence on             energy=1.00D-06.
 No special actions if energy rises.
 SCF Done:  E(RM062X) =  -455.770424251     A.U. after    5 cycles
            NFock=  5  Conv=0.78D-08     -V/T= 2.0045
 QCSCF skips out because SCF is already converged.
 DoSCS=F DFT=T ScalE2(SS,OS)=  1.000000  1.000000
 Range of M.O.s used for correlation:     1   182
 NBasis=   182 NAE=    39 NBE=    39 NFC=     0 NFV=     0
 NROrb=    182 NOA=    39 NOB=    39 NVA=   143 NVB=   143

 **** Warning!!: The largest alpha MO coefficient is  0.28508617D+02

   1 Symmetry operations used in ECPInt.
 ECPInt:  NShTT=    7503 NPrTT=   29182 LenC2=    7211 LenP2D=   20241.
 LDataN:  DoStor=T MaxTD1= 3 Len=   28
 Symmetrizing basis deriv contribution to polar:
 IMax=3 JMax=2 DiffMx= 0.00D+00
 G2DrvN: will do    25 centers at a time, making    1 passes.
 Calling FoFCou, ICntrl=  3107 FMM=F I1Cent=   0 AccDes= 1.00D-11.
 End of G2Drv F.D. properties file   721 does not exist.
 End of G2Drv F.D. properties file   722 does not exist.
 End of G2Drv F.D. properties file   788 does not exist.
          IDoAtm=111111111111111111111111
          Differentiating once with respect to nuclear coordinates.
 Keep R1 ints in memory in canonical form, NReq=154823143.
          There are    75 degrees of freedom in the 1st order CPHF.  IDoFFX=6 NUNeed=     0.
     69 vectors produced by pass  0 Test12= 7.44D-15 1.33D-09 XBig12= 1.14D-01 1.41D-01.
 AX will form    69 AO Fock derivatives at one time.
     69 vectors produced by pass  1 Test12= 7.44D-15 1.33D-09 XBig12= 1.73D-02 3.37D-02.
     69 vectors produced by pass  2 Test12= 7.44D-15 1.33D-09 XBig12= 2.11D-04 2.13D-03.
     69 vectors produced by pass  3 Test12= 7.44D-15 1.33D-09 XBig12= 1.23D-06 1.57D-04.
     69 vectors produced by pass  4 Test12= 7.44D-15 1.33D-09 XBig12= 5.45D-09 1.32D-05.
     69 vectors produced by pass  5 Test12= 7.44D-15 1.33D-09 XBig12= 1.97D-11 5.86D-07.
     34 vectors produced by pass  6 Test12= 7.44D-15 1.33D-09 XBig12= 5.55D-14 2.12D-08.
 InvSVY:  IOpt=1 It=  1 EMax= 4.44D-16
 Solved reduced A of dimension   448 with    75 vectors.
 End of Minotr F.D. properties file   721 does not exist.
 End of Minotr F.D. properties file   722 does not exist.
 End of Minotr F.D. properties file   788 does not exist.

 **********************************************************************

            Population analysis using the SCF Density.

 **********************************************************************

 Alpha  occ. eigenvalues --  -14.73914 -14.73829 -14.73564 -14.73236 -10.56539
 Alpha  occ. eigenvalues --  -10.56339 -10.55969 -10.55836 -10.52811 -10.51996
 Alpha  occ. eigenvalues --   -1.02741  -1.01454  -0.97900  -0.96864  -0.86408
 Alpha  occ. eigenvalues --   -0.79466  -0.78800  -0.71055  -0.65012  -0.60655
 Alpha  occ. eigenvalues --   -0.60117  -0.59987  -0.56483  -0.55317  -0.54981
 Alpha  occ. eigenvalues --   -0.53766  -0.49815  -0.48052  -0.46937  -0.45740
 Alpha  occ. eigenvalues --   -0.44547  -0.42918  -0.42392  -0.37730  -0.35115
 Alpha  occ. eigenvalues --   -0.32508  -0.28817  -0.24260  -0.19332
 Alpha virt. eigenvalues --    0.03297   0.06090   0.07268   0.07717   0.08355
 Alpha virt. eigenvalues --    0.09889   0.10902   0.11896   0.12814   0.13891
 Alpha virt. eigenvalues --    0.14327   0.15204   0.17156   0.18163   0.18871
 Alpha virt. eigenvalues --    0.19603   0.20898   0.22977   0.24138   0.25008
 Alpha virt. eigenvalues --    0.26469   0.27798   0.28556   0.29460   0.30073
 Alpha virt. eigenvalues --    0.30891   0.31268   0.32811   0.33851   0.35511
 Alpha virt. eigenvalues --    0.36219   0.37573   0.38743   0.39761   0.39936
 Alpha virt. eigenvalues --    0.40822   0.42695   0.43311   0.44387   0.45240
 Alpha virt. eigenvalues --    0.45523   0.45758   0.46939   0.47555   0.47830
 Alpha virt. eigenvalues --    0.49666   0.50356   0.51277   0.51659   0.52898
 Alpha virt. eigenvalues --    0.53654   0.53801   0.54276   0.54462   0.55217
 Alpha virt. eigenvalues --    0.57034   0.57294   0.58473   0.58593   0.59603
 Alpha virt. eigenvalues --    0.60794   0.62029   0.63103   0.63685   0.64261
 Alpha virt. eigenvalues --    0.65118   0.65876   0.68408   0.69226   0.71288
 Alpha virt. eigenvalues --    0.72429   0.73732   0.76281   0.77787   0.80386
 Alpha virt. eigenvalues --    0.81066   0.83947   0.89253   0.92525   1.44456
 Alpha virt. eigenvalues --    1.46197   1.51622   1.53735   1.55180   1.56681
 Alpha virt. eigenvalues --    1.58401   1.58833   1.59961   1.61466   1.61965
 Alpha virt. eigenvalues --    1.62211   1.65598   1.67609   1.70567   1.71896
 Alpha virt. eigenvalues --    1.75238   1.81520   1.82266   1.87207   1.91000
 Alpha virt. eigenvalues --    1.99248   2.04605   2.05969   2.07152   2.08851
 Alpha virt. eigenvalues --    2.09839   2.12662   2.13586   2.14171   2.15707
 Alpha virt. eigenvalues --    2.16541   2.21072   2.22837   2.25956   2.28132
 Alpha virt. eigenvalues --    2.37988   2.45625   2.46715   2.53000   2.53374
 Alpha virt. eigenvalues --    2.54944   2.56143   2.58920   2.61029   2.63507
 Alpha virt. eigenvalues --    2.69242   2.73242   2.79582   2.83307   2.88439
 Alpha virt. eigenvalues --    2.91573   2.93990   2.99060  21.50229  21.66795
 Alpha virt. eigenvalues --   21.84106  22.07828  22.14749  22.29071  31.81284
 Alpha virt. eigenvalues --   31.84797  31.90533  31.93061
          Condensed to atoms (all electrons):
               1          2          3          4          5          6
     1  C    6.455445   0.008201  -0.075289  -0.249995   0.003228  -0.023576
     2  C    0.008201   6.249383  -0.193720  -0.188499  -0.162511  -0.010573
     3  C   -0.075289  -0.193720   5.954938   0.281955  -0.014933  -0.132401
     4  C   -0.249995  -0.188499   0.281955   6.206407   0.117477   0.016159
     5  C    0.003228  -0.162511  -0.014933   0.117477   5.953203   0.028399
     6  C   -0.023576  -0.010573  -0.132401   0.016159   0.028399   5.980363
     7  H    0.285196  -0.015852   0.043180   0.007845   0.012368  -0.031001
     8  H   -0.001002   0.046091  -0.008029   0.267190  -0.017812   0.010279
     9  H    0.007828  -0.007267   0.009792  -0.036282   0.367497  -0.022126
    10  H   -0.081278   0.039420  -0.023492  -0.001607  -0.027657   0.387825
    11  H    0.031399  -0.041215   0.036212   0.303775  -0.067993  -0.023294
    12  H    0.363885   0.042843  -0.016858  -0.024998  -0.021336  -0.108747
    13  N   -0.093543   0.006117   0.004973   0.019078  -0.026499   0.189663
    14  H   -0.002001   0.001565   0.000149  -0.000025   0.007382  -0.050649
    15  H    0.005313  -0.002533  -0.000615   0.000264  -0.023716  -0.009934
    16  N   -0.011690   0.017730   0.029929  -0.148497   0.099187  -0.002997
    17  H   -0.001997   0.001023   0.000587  -0.004537  -0.053236  -0.000033
    18  H   -0.000254   0.000954   0.000765   0.002066  -0.084285   0.017837
    19  N   -0.030669   0.180299  -0.040640   0.001211   0.002176  -0.009356
    20  H   -0.031343  -0.047624   0.017922   0.000766  -0.000265  -0.001514
    21  H    0.011483   0.010557  -0.059599  -0.002745  -0.000874  -0.000043
    22  N   -0.002596  -0.005969   0.106866  -0.046053   0.012241  -0.006675
    23  H    0.001252   0.017512  -0.075439  -0.001058   0.000010  -0.000569
    24  H   -0.003189  -0.036919  -0.033868   0.012210   0.004615  -0.000505
               7          8          9         10         11         12
     1  C    0.285196  -0.001002   0.007828  -0.081278   0.031399   0.363885
     2  C   -0.015852   0.046091  -0.007267   0.039420  -0.041215   0.042843
     3  C    0.043180  -0.008029   0.009792  -0.023492   0.036212  -0.016858
     4  C    0.007845   0.267190  -0.036282  -0.001607   0.303775  -0.024998
     5  C    0.012368  -0.017812   0.367497  -0.027657  -0.067993  -0.021336
     6  C   -0.031001   0.010279  -0.022126   0.387825  -0.023294  -0.108747
     7  H    0.568635  -0.000256   0.000000  -0.004946   0.000540  -0.028809
     8  H   -0.000256   0.549900  -0.003260   0.000344  -0.022014   0.001061
     9  H    0.000000  -0.003260   0.514443  -0.008125   0.008975   0.000436
    10  H   -0.004946   0.000344  -0.008125   0.565672  -0.000220   0.010192
    11  H    0.000540  -0.022014   0.008975  -0.000220   0.540046  -0.001936
    12  H   -0.028809   0.001061   0.000436   0.010192  -0.001936   0.521593
    13  N    0.007960  -0.000304   0.003122  -0.065645  -0.001356   0.022909
    14  H    0.000682   0.000005  -0.000301  -0.000856   0.000101   0.002007
    15  H   -0.000226   0.000010  -0.000907   0.002264  -0.000387  -0.002467
    16  N   -0.000203   0.004575  -0.030378   0.008931   0.044200   0.014168
    17  H   -0.000050  -0.000247   0.006559   0.000781   0.005040   0.001984
    18  H    0.000006   0.001251  -0.008398  -0.000056  -0.000822   0.000441
    19  N    0.000778  -0.000383  -0.000283   0.007034  -0.000081   0.000951
    20  H    0.002376   0.000040  -0.000022   0.000352  -0.000131   0.000731
    21  H   -0.000343  -0.000070  -0.000008  -0.000219   0.000002  -0.000037
    22  N   -0.000412   0.002384   0.004573   0.001367   0.008837   0.000520
    23  H    0.000039   0.000926   0.000025   0.000014   0.000692  -0.000050
    24  H   -0.000024   0.001475  -0.000252   0.000625  -0.000306  -0.000137
              13         14         15         16         17         18
     1  C   -0.093543  -0.002001   0.005313  -0.011690  -0.001997  -0.000254
     2  C    0.006117   0.001565  -0.002533   0.017730   0.001023   0.000954
     3  C    0.004973   0.000149  -0.000615   0.029929   0.000587   0.000765
     4  C    0.019078  -0.000025   0.000264  -0.148497  -0.004537   0.002066
     5  C   -0.026499   0.007382  -0.023716   0.099187  -0.053236  -0.084285
     6  C    0.189663  -0.050649  -0.009934  -0.002997  -0.000033   0.017837
     7  H    0.007960   0.000682  -0.000226  -0.000203  -0.000050   0.000006
     8  H   -0.000304   0.000005   0.000010   0.004575  -0.000247   0.001251
     9  H    0.003122  -0.000301  -0.000907  -0.030378   0.006559  -0.008398
    10  H   -0.065645  -0.000856   0.002264   0.008931   0.000781  -0.000056
    11  H   -0.001356   0.000101  -0.000387   0.044200   0.005040  -0.000822
    12  H    0.022909   0.002007  -0.002467   0.014168   0.001984   0.000441
    13  N    6.915425   0.340110   0.315244   0.013928   0.011225   0.001513
    14  H    0.340110   0.433924  -0.039688   0.000665  -0.000262   0.000030
    15  H    0.315244  -0.039688   0.435785   0.005664  -0.003999  -0.000759
    16  N    0.013928   0.000665   0.005664   6.850754   0.347556   0.357554
    17  H    0.011225  -0.000262  -0.003999   0.347556   0.383112  -0.028552
    18  H    0.001513   0.000030  -0.000759   0.357554  -0.028552   0.438469
    19  N    0.000546   0.000136   0.000005  -0.000097   0.000001  -0.000004
    20  H   -0.000082   0.000030  -0.000005   0.000002   0.000001   0.000000
    21  H   -0.000017   0.000014  -0.000003   0.000012   0.000001   0.000001
    22  N    0.000007  -0.000015   0.000010   0.000331  -0.000004  -0.000036
    23  H    0.000005   0.000000  -0.000000   0.000055   0.000001   0.000011
    24  H    0.000003  -0.000008   0.000005  -0.000031  -0.000003  -0.000007
              19         20         21         22         23         24
     1  C   -0.030669  -0.031343   0.011483  -0.002596   0.001252  -0.003189
     2  C    0.180299  -0.047624   0.010557  -0.005969   0.017512  -0.036919
     3  C   -0.040640   0.017922  -0.059599   0.106866  -0.075439  -0.033868
     4  C    0.001211   0.000766  -0.002745  -0.046053  -0.001058   0.012210
     5  C    0.002176  -0.000265  -0.000874   0.012241   0.000010   0.004615
     6  C   -0.009356  -0.001514  -0.000043  -0.006675  -0.000569  -0.000505
     7  H    0.000778   0.002376  -0.000343  -0.000412   0.000039  -0.000024
     8  H   -0.000383   0.000040  -0.000070   0.002384   0.000926   0.001475
     9  H   -0.000283  -0.000022  -0.000008   0.004573   0.000025  -0.000252
    10  H    0.007034   0.000352  -0.000219   0.001367   0.000014   0.000625
    11  H   -0.000081  -0.000131   0.000002   0.008837   0.000692  -0.000306
    12  H    0.000951   0.000731  -0.000037   0.000520  -0.000050  -0.000137
    13  N    0.000546  -0.000082  -0.000017   0.000007   0.000005   0.000003
    14  H    0.000136   0.000030   0.000014  -0.000015   0.000000  -0.000008
    15  H    0.000005  -0.000005  -0.000003   0.000010  -0.000000   0.000005
    16  N   -0.000097   0.000002   0.000012   0.000331   0.000055  -0.000031
    17  H    0.000001   0.000001   0.000001  -0.000004   0.000001  -0.000003
    18  H   -0.000004   0.000000   0.000001  -0.000036   0.000011  -0.000007
    19  N    6.742767   0.354816   0.330829   0.046887  -0.001204   0.019492
    20  H    0.354816   0.440779  -0.029338  -0.001222  -0.000096  -0.000428
    21  H    0.330829  -0.029338   0.409972   0.018075  -0.000104  -0.008855
    22  N    0.046887  -0.001222   0.018075   6.793528   0.358445   0.329819
    23  H   -0.001204  -0.000096  -0.000104   0.358445   0.419284  -0.029720
    24  H    0.019492  -0.000428  -0.008855   0.329819  -0.029720   0.428791
 Mulliken charges:
               1
     1  C   -0.564806
     2  C    0.090985
     3  C    0.187616
     4  C   -0.532104
     5  C   -0.106667
     6  C   -0.196531
     7  H    0.152517
     8  H    0.167845
     9  H    0.194358
    10  H    0.189281
    11  H    0.179937
    12  H    0.221652
    13  N   -0.664382
    14  H    0.307006
    15  H    0.320676
    16  N   -0.601350
    17  H    0.335052
    18  H    0.302276
    19  N   -0.605212
    20  H    0.294257
    21  H    0.321312
    22  N   -0.620908
    23  H    0.309971
    24  H    0.317219
 Sum of Mulliken charges =  -0.00000
 Mulliken charges with hydrogens summed into heavy atoms:
               1
     1  C   -0.190638
     2  C    0.090985
     3  C    0.187616
     4  C   -0.184322
     5  C    0.087691
     6  C   -0.007251
    13  N   -0.036700
    16  N    0.035978
    19  N    0.010357
    22  N    0.006282
 APT charges:
               1
     1  C   -0.715473
     2  C   -0.177931
     3  C    0.142520
     4  C   -0.640083
     5  C   -0.154499
     6  C   -0.404207
     7  H    0.455743
     8  H    0.465971
     9  H    0.413906
    10  H    0.336639
    11  H    0.280040
    12  H    0.314994
    13  N   -1.504611
    14  H    0.607514
    15  H    0.762055
    16  N   -1.238525
    17  H    0.539732
    18  H    0.668265
    19  N   -1.617078
    20  H    0.694498
    21  H    0.755237
    22  N   -1.215198
    23  H    0.719784
    24  H    0.510709
 Sum of APT charges =  -0.00000
 APT charges with hydrogens summed into heavy atoms:
               1
     1  C    0.055263
     2  C   -0.177931
     3  C    0.142520
     4  C    0.105929
     5  C    0.259406
     6  C   -0.067568
    13  N   -0.135042
    16  N   -0.030528
    19  N   -0.167343
    22  N    0.015295
 Electronic spatial extent (au):  <R**2>=           1686.3212
 Charge=             -0.0000 electrons
 Dipole moment (field-independent basis, Debye):
    X=             -0.0940    Y=              0.2252    Z=              0.7104  Tot=              0.7512
 Quadrupole moment (field-independent basis, Debye-Ang):
   XX=            -59.1071   YY=            -51.2243   ZZ=            -68.0067
   XY=              0.2115   XZ=             -2.9332   YZ=             -0.6506
 Traceless Quadrupole moment (field-independent basis, Debye-Ang):
   XX=              0.3389   YY=              8.2218   ZZ=             -8.5607
   XY=              0.2115   XZ=             -2.9332   YZ=             -0.6506
 Octapole moment (field-independent basis, Debye-Ang**2):
  XXX=             -7.5192  YYY=              4.7000  ZZZ=             28.0511  XYY=             -0.9436
  XXY=              6.3860  XXZ=              6.5444  XZZ=              5.4344  YZZ=              3.0084
  YYZ=              7.5244  XYZ=             14.9576
 Hexadecapole moment (field-independent basis, Debye-Ang**3):
 XXXX=          -1211.5671 YYYY=           -539.1664 ZZZZ=           -293.4531 XXXY=            -21.0750
 XXXZ=           -157.7759 YYYX=            -13.3168 YYYZ=            -18.4043 ZZZX=           -152.3665
 ZZZY=            -14.6039 XXYY=           -260.8447 XXZZ=           -273.7198 YYZZ=           -168.6429
 XXYZ=             -0.8714 YYXZ=            -38.1217 ZZXY=              0.7132
 N-N= 5.601791488562D+02 E-N=-2.181506162283D+03  KE= 4.537147152991D+02
  Exact polarizability:   0.000   0.000   0.000   0.000   0.000   0.000
 Approx polarizability: 172.221  -6.515 149.976  21.667  -0.525 107.536
   1 Symmetry operations used in ECPInt.
 ECPInt:  NShTT=    7503 NPrTT=   29182 LenC2=    7211 LenP2D=   20241.
 LDataN:  DoStor=T MaxTD1= 4 Len=   56
 Calling FoFJK, ICntrl=    100127 FMM=F ISym2X=0 I1Cent= 0 IOpClX= 0 NMat=1 NMatS=1 NMatT=0.
 -------------------------------------------------------------------
 Center     Atomic                   Forces (Hartrees/Bohr)
 Number     Number              X              Y              Z
 -------------------------------------------------------------------
      1        6          -0.000083508   -0.000036079   -0.000077505
      2        6           0.000040316   -0.000006005    0.000033440
      3        6          -0.000005410    0.000010164   -0.000003518
      4        6           0.000039945    0.000014067    0.000034150
      5        6          -0.000025666    0.000008357   -0.000005287
      6        6           0.000049123    0.000040523    0.000015505
      7        1          -0.000003975    0.000004943    0.000006126
      8        1           0.000000579    0.000004950   -0.000009079
      9        1           0.000002758   -0.000014643   -0.000002178
     10        1           0.000002604   -0.000006140    0.000009676
     11        1           0.000000425   -0.000000264    0.000005722
     12        1          -0.000004858    0.000002136   -0.000009780
     13        7          -0.000010290   -0.000004829   -0.000002824
     14        1          -0.000013627   -0.000009878    0.000000549
     15        1           0.000009429    0.000003532    0.000004681
     16        7          -0.000020580   -0.000008135   -0.000002852
     17        1           0.000012792   -0.000003789    0.000000044
     18        1           0.000024324   -0.000000747    0.000002286
     19        7          -0.000009350   -0.000006356   -0.000021133
     20        1           0.000000125   -0.000003380    0.000021301
     21        1          -0.000000848    0.000006872   -0.000002213
     22        7           0.000008544   -0.000005812    0.000021908
     23        1           0.000010879   -0.000002247   -0.000007823
     24        1          -0.000023730    0.000012762   -0.000011195
 -------------------------------------------------------------------
 Cartesian Forces:  Max     0.000083508 RMS     0.000020568
 IRC-IRC-IRC-IRC-IRC-IRC-IRC-IRC-IRC-IRC-IRC-IRC-IRC-IRC-IRC-IRC-IRC-IRC
          ******** Start new reaction path calculation ********
 Setting the phase of the TS vector:      1      6      0      0
 Supplied step size of   0.0500 bohr.
    Integration on MW PES will use step size of   0.1313 sqrt(amu)*bohr.
 Point Number:   0          Path Number:   1
 Calculating another point on the path.
 IRC-IRC-IRC-IRC-IRC-IRC-IRC-IRC-IRC-IRC-IRC-IRC-IRC-IRC-IRC-IRC-IRC-IRC
                          Input orientation:                          
 ---------------------------------------------------------------------
 Center     Atomic      Atomic             Coordinates (Angstroms)
 Number     Number       Type             X           Y           Z
 ---------------------------------------------------------------------
      1          6           0       -0.016015    1.287407   -0.733933
      2          6           0       -1.231658    0.633165   -0.663044
      3          6           0       -1.259268   -0.783234   -0.604302
      4          6           0       -0.099419   -1.509566   -0.745925
      5          6           0        1.348213   -0.697137    0.897897
      6          6           0        1.106322    0.676369    0.962972
      7          1           0       -0.008701    2.370229   -0.655633
      8          1           0       -0.107135   -2.573855   -0.540963
      9          1           0        0.819472   -1.371861    1.549428
     10          1           0        0.354388    1.015606    1.664890
     11          1           0        0.702772   -1.163023   -1.376978
     12          1           0        0.801074    0.879673   -1.308243
     13          7           0        2.247979    1.516538    0.703531
     14          1           0        2.058001    2.471241    0.440909
     15          1           0        3.010922    1.425850    1.364173
     16          7           0        2.595998   -1.142167    0.430440
     17          1           0        3.118484   -0.481454   -0.125665
     18          1           0        2.704818   -2.114257    0.196612
     19          7           0       -2.415424    1.309190   -0.268508
     20          1           0       -2.403400    2.312481   -0.365173
     21          1           0       -3.275949    0.878696   -0.579469
     22          7           0       -2.465659   -1.371028   -0.156602
     23          1           0       -2.531863   -2.374339   -0.196248
     24          1           0       -2.919546   -0.938085    0.636642
 ---------------------------------------------------------------------
                    Distance matrix (angstroms):
                    1          2          3          4          5
     1  C    0.000000
     2  C    1.382333   0.000000
     3  C    2.418684   1.417886   0.000000
     4  C    2.798241   2.424898   1.375814   0.000000
     5  C    2.909020   3.295751   3.010477   2.336200   0.000000
     6  C    2.124263   2.848148   3.191051   3.025302   1.396161
     7  H    1.085674   2.124398   3.392769   3.881905   3.696404
     8  H    3.867154   3.400652   2.130198   1.083872   2.776765
     9  H    3.603260   3.622471   3.050606   2.476281   1.076713
    10  H    2.442422   2.842725   3.314958   3.520577   2.123547
    11  H    2.633394   2.734595   2.142631   1.077882   2.410125
    12  H    1.078756   2.146870   2.739672   2.614489   2.766359
    13  N    2.691556   3.841322   4.393195   4.094937   2.397439
    14  H    2.661440   3.926715   4.763229   4.680797   3.278911
    15  H    3.685589   4.768380   5.195139   4.769004   2.736620
    16  N    3.752494   4.358723   4.007817   2.963796   1.404826
    17  H    3.650198   4.522708   4.414168   3.434623   2.056225
    18  H    4.454230   4.876801   4.257589   3.019565   2.083366
    19  N    2.444229   1.419144   2.414062   3.679292   4.421629
    20  H    2.624189   2.069253   3.309029   4.478989   4.972700
    21  H    3.289083   2.060678   2.613356   3.977668   5.103795
    22  N    3.660784   2.407495   1.414679   2.442455   4.013941
    23  H    4.475150   3.309609   2.077888   2.639462   4.366366
    24  H    3.906633   2.647070   2.078568   3.192365   4.282531
                    6          7          8          9         10
     6  C    0.000000
     7  H    2.594671   0.000000
     8  H    3.781303   4.946392   0.000000
     9  H    2.149758   4.421696   2.583239   0.000000
    10  H    1.083132   2.711395   4.238280   2.435084   0.000000
    11  H    3.003595   3.675649   1.829021   2.936168   3.757760
    12  H    2.300636   1.817524   3.652453   3.638135   3.009573
    13  N    1.441032   2.769246   4.881254   3.331519   2.181932
    14  H    2.097572   2.341765   5.577175   4.187147   2.553292
    15  H    2.085710   3.753611   5.417514   3.558646   2.704792
    16  N    2.410353   4.505656   3.209405   2.112092   3.347337
    17  H    2.564075   4.265237   3.867199   2.980640   3.617666
    18  H    3.306070   5.310379   2.943183   2.436348   4.180480
    19  N    3.784138   2.658568   4.525535   4.577934   3.390587
    20  H    4.093773   2.412941   5.401852   5.256137   3.661753
    21  H    4.650199   3.592405   4.686467   5.135142   4.270274
    22  N    4.266654   4.503629   2.675287   3.701706   4.119045
    23  H    4.887433   5.393357   2.457222   3.909449   4.825558
    24  H    4.349777   4.592160   3.460079   3.873189   3.948778
                   11         12         13         14         15
    11  H    0.000000
    12  H    2.046214   0.000000
    13  N    3.727765   2.558587   0.000000
    14  H    4.283601   2.678150   1.008227   0.000000
    15  H    4.420830   3.510491   1.013289   1.689177   0.000000
    16  N    2.617538   3.214437   2.695257   3.653255   2.763826
    17  H    2.804637   2.936247   2.331806   3.188109   2.422602
    18  H    2.718313   3.853887   3.694367   4.637333   3.740222
    19  N    4.130821   3.407550   4.768142   4.676020   5.667847
    20  H    4.769819   3.634691   4.838490   4.536416   5.752533
    21  H    4.542560   4.141646   5.706725   5.659363   6.603171
    22  N    3.401697   4.130797   5.594306   5.965195   6.334685
    23  H    3.650243   4.788903   6.228597   6.704660   6.899190
    24  H    4.150476   4.574914   5.721273   6.036372   6.425569
                   16         17         18         19         20
    16  N    0.000000
    17  H    1.009350   0.000000
    18  H    1.005722   1.714943   0.000000
    19  N    5.622458   5.818157   6.176828   0.000000
    20  H    6.128750   6.193113   6.782736   1.008008   0.000000
    21  H    6.291547   6.553222   6.732730   1.011199   1.692040
    22  N    5.100722   5.654641   5.235551   2.683024   3.689935
    23  H    5.310927   5.959398   5.257834   3.686077   4.691622
    24  H    5.523168   6.103067   5.762853   2.474608   3.440381
                   21         22         23         24
    21  H    0.000000
    22  N    2.428301   0.000000
    23  H    3.358982   1.006273   0.000000
    24  H    2.215095   1.011281   1.704942   0.000000
 Symmetry turned off by external request.
 Stoichiometry    C6H14N4
 Framework group  C1[X(C6H14N4)]
 Deg. of freedom    66
 Full point group                 C1      NOp   1
 Rotational constants (GHZ):           1.9841561           0.9399545           0.7106377
 Basis read from rwf:  (5D, 7F)
 Pseudo-potential data read from rwf file.
   182 basis functions,   360 primitive gaussians,   182 cartesian basis functions
    39 alpha electrons       39 beta electrons
       nuclear repulsion energy       559.9587163317 Hartrees.
 NAtoms=   24 NActive=   24 NUniq=   24 SFac= 1.00D+00 NAtFMM=   60 NAOKFM=F Big=F
 Integral buffers will be    131072 words long.
 Raffenetti 2 integral format.
 Two-electron integral symmetry is turned off.
 One-electron integrals computed using PRISM.
   1 Symmetry operations used in ECPInt.
 ECPInt:  NShTT=    7503 NPrTT=   29182 LenC2=    7211 LenP2D=   20232.
 LDataN:  DoStor=T MaxTD1= 2 Len=   12
 NBasis=   182 RedAO= T EigKep=  4.78D-05  NBF=   182
 NBsUse=   182 1.00D-06 EigRej= -1.00D+00 NBFU=   182
 Initial guess from the checkpoint file:  "dairc10-testf.chk"
 B after Tr=     0.054282    0.027908    0.187229
         Rot=    1.000000    0.000004   -0.000004    0.000001 Ang=   0.00 deg.
 ExpMin= 9.52D-02 ExpMax= 1.97D+04 ExpMxC= 6.73D+02 IAcc=3 IRadAn=         5 AccDes= 0.00D+00
 Harris functional with IExCor= 1009 and IRadAn=       5 diagonalized for initial guess.
 HarFok:  IExCor= 1009 AccDes= 0.00D+00 IRadAn=         5 IDoV= 1 UseB2=F ITyADJ=14
 ICtDFT=  3500011 ScaDFX=  1.000000  1.000000  1.000000  1.000000
 FoFCou: FMM=F IPFlag=           0 FMFlag=      100000 FMFlg1=           0
         NFxFlg=           0 DoJE=T BraDBF=F KetDBF=T FulRan=T
         wScrn=  0.000000 ICntrl=       500 IOpCl=  0 I1Cent=   200000004 NGrid=           0
         NMat0=    1 NMatS0=      1 NMatT0=    0 NMatD0=    1 NMtDS0=    0 NMtDT0=    0
 Symmetry not used in FoFCou.
 Requested convergence on RMS density matrix=1.00D-08 within  32 cycles.
 Requested convergence on MAX density matrix=1.00D-06.
 Requested convergence on             energy=1.00D-06.
 No special actions if energy rises.
 SCF Done:  E(RM062X) =  -455.770552231     A.U. after   12 cycles
            NFock= 12  Conv=0.51D-08     -V/T= 2.0045
 QCSCF skips out because SCF is already converged.
 DoSCS=F DFT=T ScalE2(SS,OS)=  1.000000  1.000000
 Range of M.O.s used for correlation:     1   182
 NBasis=   182 NAE=    39 NBE=    39 NFC=     0 NFV=     0
 NROrb=    182 NOA=    39 NOB=    39 NVA=   143 NVB=   143

 **** Warning!!: The largest alpha MO coefficient is  0.27638637D+02

   1 Symmetry operations used in ECPInt.
 ECPInt:  NShTT=    7503 NPrTT=   29182 LenC2=    7211 LenP2D=   20232.
 LDataN:  DoStor=T MaxTD1= 3 Len=   28
 Symmetrizing basis deriv contribution to polar:
 IMax=3 JMax=2 DiffMx= 0.00D+00
 G2DrvN: will do    25 centers at a time, making    1 passes.
 Calling FoFCou, ICntrl=  3107 FMM=F I1Cent=   0 AccDes= 1.00D-11.
 End of G2Drv F.D. properties file   721 does not exist.
 End of G2Drv F.D. properties file   722 does not exist.
 End of G2Drv F.D. properties file   788 does not exist.
          IDoAtm=111111111111111111111111
          Differentiating once with respect to nuclear coordinates.
 Keep R1 ints in memory in canonical form, NReq=154823143.
          There are    75 degrees of freedom in the 1st order CPHF.  IDoFFX=6 NUNeed=     0.
     69 vectors produced by pass  0 Test12= 7.44D-15 1.33D-09 XBig12= 1.13D-01 1.41D-01.
 AX will form    69 AO Fock derivatives at one time.
     69 vectors produced by pass  1 Test12= 7.44D-15 1.33D-09 XBig12= 1.70D-02 3.19D-02.
     69 vectors produced by pass  2 Test12= 7.44D-15 1.33D-09 XBig12= 2.08D-04 2.01D-03.
     69 vectors produced by pass  3 Test12= 7.44D-15 1.33D-09 XBig12= 1.21D-06 1.51D-04.
     69 vectors produced by pass  4 Test12= 7.44D-15 1.33D-09 XBig12= 5.32D-09 1.26D-05.
     69 vectors produced by pass  5 Test12= 7.44D-15 1.33D-09 XBig12= 1.92D-11 5.50D-07.
     34 vectors produced by pass  6 Test12= 7.44D-15 1.33D-09 XBig12= 5.37D-14 2.08D-08.
 InvSVY:  IOpt=1 It=  1 EMax= 3.33D-16
 Solved reduced A of dimension   448 with    75 vectors.
 End of Minotr F.D. properties file   721 does not exist.
 End of Minotr F.D. properties file   722 does not exist.
 End of Minotr F.D. properties file   788 does not exist.
   1 Symmetry operations used in ECPInt.
 ECPInt:  NShTT=    7503 NPrTT=   29182 LenC2=    7211 LenP2D=   20232.
 LDataN:  DoStor=T MaxTD1= 4 Len=   56
 Calling FoFJK, ICntrl=    100127 FMM=F ISym2X=0 I1Cent= 0 IOpClX= 0 NMat=1 NMatS=1 NMatT=0.
 -------------------------------------------------------------------
 Center     Atomic                   Forces (Hartrees/Bohr)
 Number     Number              X              Y              Z
 -------------------------------------------------------------------
      1        6          -0.001747437    0.000870930   -0.002820791
      2        6           0.000137633    0.000720280   -0.000251527
      3        6           0.000093483   -0.000625117   -0.000083550
      4        6          -0.001528095   -0.000765299   -0.001853681
      5        6           0.001583749    0.000828944    0.002192819
      6        6           0.001887429   -0.000889576    0.002993203
      7        1          -0.000076166    0.000063725   -0.000136697
      8        1          -0.000067510   -0.000037824   -0.000086193
      9        1          -0.000071620   -0.000032330   -0.000252803
     10        1          -0.000027122   -0.000008501   -0.000086612
     11        1          -0.000000620    0.000041700    0.000203422
     12        1          -0.000013543   -0.000028718    0.000266755
     13        7          -0.000025263    0.000125646   -0.000023999
     14        1          -0.000108187   -0.000038760   -0.000046326
     15        1           0.000080500    0.000120785   -0.000092634
     16        7           0.000084058   -0.000234622   -0.000177875
     17        1           0.000062055   -0.000024092    0.000026338
     18        1          -0.000040210   -0.000011062   -0.000035822
     19        7          -0.000136082   -0.000202863    0.000040781
     20        1          -0.000025947   -0.000010338    0.000095099
     21        1          -0.000002936   -0.000002451   -0.000020489
     22        7          -0.000030446    0.000092501    0.000146095
     23        1          -0.000005309    0.000003707    0.000022285
     24        1          -0.000022414    0.000043335   -0.000017800
 -------------------------------------------------------------------
 Cartesian Forces:  Max     0.002993203 RMS     0.000754205
 IRC-IRC-IRC-IRC-IRC-IRC-IRC-IRC-IRC-IRC-IRC-IRC-IRC-IRC-IRC-IRC-IRC-IRC
 Pt  1 Step number   1 out of a maximum of  20
 Modified Bulirsch-Stoer Extrapolation Cycles:
    EPS =    0.000010000000000
      PEZero:  N= 2 I= 1 D=  3.42D-04 Err=  4.56D-04
      PEZero:  N= 3 I= 2 D=  3.42D-04 Err=  3.04D-04
      PEZero:  N= 3 I= 1 D=  6.84D-04 Err=  3.72D-08
 Maximum DWI energy   std dev =  0.000000500 at pt    18
 Maximum DWI gradient std dev =  0.020906780 at pt    27
 CORRECTOR INTEGRATION CONVERGENCE:
   Recorrection delta-x convergence threshold:    0.010000
   Delta-x Convergence Met
 Point Number:   1          Path Number:   1
   CHANGE IN THE REACTION COORDINATE =    0.13130
   NET REACTION COORDINATE UP TO THIS POINT =    0.13130
  # OF POINTS ALONG THE PATH =   1
  # OF STEPS =   1

 Calculating another point on the path.
 IRC-IRC-IRC-IRC-IRC-IRC-IRC-IRC-IRC-IRC-IRC-IRC-IRC-IRC-IRC-IRC-IRC-IRC
                          Input orientation:                          
 ---------------------------------------------------------------------
 Center     Atomic      Atomic             Coordinates (Angstroms)
 Number     Number       Type             X           Y           Z
 ---------------------------------------------------------------------
      1          6           0       -0.021529    1.290194   -0.742265
      2          6           0       -1.231246    0.635362   -0.663849
      3          6           0       -1.258870   -0.785200   -0.604509
      4          6           0       -0.104264   -1.511849   -0.751402
      5          6           0        1.353103   -0.694282    0.904329
      6          6           0        1.112085    0.673292    0.971912
      7          1           0       -0.011425    2.372472   -0.660870
      8          1           0       -0.109460   -2.575464   -0.543846
      9          1           0        0.815541   -1.374751    1.542197
     10          1           0        0.352327    1.016223    1.662758
     11          1           0        0.704315   -1.160720   -1.370995
     12          1           0        0.803330    0.877171   -1.300405
     13          7           0        2.247933    1.516934    0.703454
     14          1           0        2.054502    2.470395    0.439057
     15          1           0        3.013986    1.430138    1.361073
     16          7           0        2.596263   -1.142797    0.429974
     17          1           0        3.120384   -0.482108   -0.124529
     18          1           0        2.703103   -2.114820    0.195535
     19          7           0       -2.415828    1.308652   -0.268365
     20          1           0       -2.404179    2.312249   -0.361712
     21          1           0       -3.276102    0.878701   -0.580478
     22          7           0       -2.465731   -1.370821   -0.156260
     23          1           0       -2.532350   -2.374173   -0.195088
     24          1           0       -2.920216   -0.936682    0.635840
 ---------------------------------------------------------------------
                    Distance matrix (angstroms):
                    1          2          3          4          5
     1  C    0.000000
     2  C    1.377813   0.000000
     3  C    2.420176   1.422070   0.000000
     4  C    2.803279   2.426575   1.372119   0.000000
     5  C    2.922162   3.302423   3.017824   2.352399   0.000000
     6  C    2.145705   2.858033   3.199020   3.037130   1.390293
     7  H    1.085381   2.122621   3.395614   3.886485   3.703616
     8  H    3.871746   3.403265   2.128349   1.083690   2.788395
     9  H    3.608516   3.618913   3.042877   2.474962   1.076516
    10  H    2.449278   2.840045   3.313847   3.525308   2.121932
    11  H    2.632324   2.733562   2.140704   1.077491   2.411553
    12  H    1.078194   2.145501   2.738689   2.613914   2.762710
    13  N    2.700365   3.840751   4.394116   4.101581   2.393856
    14  H    2.664264   3.921720   4.760921   4.683560   3.274694
    15  H    3.695669   4.770113   5.198898   4.779260   2.735015
    16  N    3.761173   4.359831   4.007503   2.970639   1.404145
    17  H    3.659819   4.525074   4.415893   3.442629   2.055930
    18  H    4.460630   4.876592   4.255020   3.023505   2.083943
    19  N    2.440817   1.418789   2.415732   3.678570   4.426262
    20  H    2.620388   2.068576   3.311325   4.479418   4.975867
    21  H    3.284471   2.060971   2.615028   3.975487   5.109645
    22  N    3.660400   2.409642   1.414352   2.439387   4.020703
    23  H    4.475624   3.312085   2.077067   2.636036   4.373499
    24  H    3.906474   2.648233   2.078818   3.191370   4.288601
                    6          7          8          9         10
     6  C    0.000000
     7  H    2.610645   0.000000
     8  H    3.787362   4.950291   0.000000
     9  H    2.146542   4.424824   2.578549   0.000000
    10  H    1.082637   2.714954   4.240586   2.438414   0.000000
    11  H    3.003180   3.674236   1.829729   2.923161   3.750551
    12  H    2.302242   1.818999   3.650514   3.626526   3.000512
    13  N    1.440122   2.774532   4.884750   3.334229   2.182727
    14  H    2.098014   2.342539   5.577591   4.187731   2.551364
    15  H    2.083625   3.758905   5.424894   3.568385   2.710493
    16  N    2.407210   4.510776   3.212755   2.112300   3.349085
    17  H    2.563279   4.271361   3.871674   2.981122   3.619604
    18  H    3.302676   5.313934   2.944383   2.433946   4.181187
    19  N    3.793170   2.658369   4.525659   4.573897   3.387836
    20  H    4.102297   2.412134   5.402652   5.252184   3.657387
    21  H    4.659216   3.591090   4.686174   5.130823   4.268081
    22  N    4.272229   4.504497   2.674585   3.694797   4.116827
    23  H    4.891915   5.394687   2.456124   3.901971   4.823664
    24  H    4.354815   4.592714   3.460870   3.869014   3.946889
                   11         12         13         14         15
    11  H    0.000000
    12  H    2.041515   0.000000
    13  N    3.722354   2.551788   0.000000
    14  H    4.276013   2.670117   1.008171   0.000000
    15  H    4.417162   3.503746   1.013328   1.689040   0.000000
    16  N    2.612141   3.207661   2.696348   3.653593   2.767929
    17  H    2.802067   2.932416   2.333002   3.189202   2.423844
    18  H    2.712836   3.846945   3.695240   4.637260   3.744577
    19  N    4.129029   3.407970   4.768488   4.672681   5.670336
    20  H    4.768951   3.637129   4.838310   4.532778   5.753488
    21  H    4.541792   4.142471   5.707082   5.655819   6.605976
    22  N    3.401311   4.129080   5.594361   5.961699   6.338373
    23  H    3.651195   4.787454   6.228900   6.701581   6.903351
    24  H    4.149073   4.572079   5.721413   6.032804   6.429818
                   16         17         18         19         20
    16  N    0.000000
    17  H    1.009300   0.000000
    18  H    1.005588   1.715317   0.000000
    19  N    5.623018   5.820409   6.175664   0.000000
    20  H    6.129317   6.195602   6.781873   1.007996   0.000000
    21  H    6.292228   6.555511   6.731587   1.011110   1.692090
    22  N    5.100927   5.656457   5.233942   2.682282   3.689309
    23  H    5.311276   5.961400   5.256407   3.685396   4.691134
    24  H    5.524166   6.105215   5.762257   2.472553   3.437580
                   21         22         23         24
    21  H    0.000000
    22  N    2.428377   0.000000
    23  H    3.359000   1.006310   0.000000
    24  H    2.213979   1.011166   1.705070   0.000000
 Symmetry turned off by external request.
 Stoichiometry    C6H14N4
 Framework group  C1[X(C6H14N4)]
 Deg. of freedom    66
 Full point group                 C1      NOp   1
 Rotational constants (GHZ):           1.9801827           0.9383883           0.7099038
 Basis read from rwf:  (5D, 7F)
 Pseudo-potential data read from rwf file.
   182 basis functions,   360 primitive gaussians,   182 cartesian basis functions
    39 alpha electrons       39 beta electrons
       nuclear repulsion energy       559.7246508124 Hartrees.
 NAtoms=   24 NActive=   24 NUniq=   24 SFac= 1.00D+00 NAtFMM=   60 NAOKFM=F Big=F
 Integral buffers will be    131072 words long.
 Raffenetti 2 integral format.
 Two-electron integral symmetry is turned off.
 One-electron integrals computed using PRISM.
   1 Symmetry operations used in ECPInt.
 ECPInt:  NShTT=    7503 NPrTT=   29182 LenC2=    7209 LenP2D=   20221.
 LDataN:  DoStor=T MaxTD1= 2 Len=   12
 NBasis=   182 RedAO= T EigKep=  4.91D-05  NBF=   182
 NBsUse=   182 1.00D-06 EigRej= -1.00D+00 NBFU=   182
 Initial guess from the checkpoint file:  "dairc10-testf.chk"
 B after Tr=    -0.000115    0.000020   -0.000069
         Rot=    1.000000    0.000008   -0.000006   -0.000004 Ang=   0.00 deg.
 ExpMin= 9.52D-02 ExpMax= 1.97D+04 ExpMxC= 6.73D+02 IAcc=3 IRadAn=         5 AccDes= 0.00D+00
 Harris functional with IExCor= 1009 and IRadAn=       5 diagonalized for initial guess.
 HarFok:  IExCor= 1009 AccDes= 0.00D+00 IRadAn=         5 IDoV= 1 UseB2=F ITyADJ=14
 ICtDFT=  3500011 ScaDFX=  1.000000  1.000000  1.000000  1.000000
 FoFCou: FMM=F IPFlag=           0 FMFlag=      100000 FMFlg1=           0
         NFxFlg=           0 DoJE=T BraDBF=F KetDBF=T FulRan=T
         wScrn=  0.000000 ICntrl=       500 IOpCl=  0 I1Cent=   200000004 NGrid=           0
         NMat0=    1 NMatS0=      1 NMatT0=    0 NMatD0=    1 NMtDS0=    0 NMtDT0=    0
 Symmetry not used in FoFCou.
 Requested convergence on RMS density matrix=1.00D-08 within  32 cycles.
 Requested convergence on MAX density matrix=1.00D-06.
 Requested convergence on             energy=1.00D-06.
 No special actions if energy rises.
 SCF Done:  E(RM062X) =  -455.770918322     A.U. after   11 cycles
            NFock= 11  Conv=0.98D-08     -V/T= 2.0044
 QCSCF skips out because SCF is already converged.
 DoSCS=F DFT=T ScalE2(SS,OS)=  1.000000  1.000000
 Range of M.O.s used for correlation:     1   182
 NBasis=   182 NAE=    39 NBE=    39 NFC=     0 NFV=     0
 NROrb=    182 NOA=    39 NOB=    39 NVA=   143 NVB=   143

 **** Warning!!: The largest alpha MO coefficient is  0.29698973D+02

   1 Symmetry operations used in ECPInt.
 ECPInt:  NShTT=    7503 NPrTT=   29182 LenC2=    7209 LenP2D=   20221.
 LDataN:  DoStor=T MaxTD1= 3 Len=   28
 Symmetrizing basis deriv contribution to polar:
 IMax=3 JMax=2 DiffMx= 0.00D+00
 G2DrvN: will do    25 centers at a time, making    1 passes.
 Calling FoFCou, ICntrl=  3107 FMM=F I1Cent=   0 AccDes= 1.00D-11.
 End of G2Drv F.D. properties file   721 does not exist.
 End of G2Drv F.D. properties file   722 does not exist.
 End of G2Drv F.D. properties file   788 does not exist.
          IDoAtm=111111111111111111111111
          Differentiating once with respect to nuclear coordinates.
 Keep R1 ints in memory in canonical form, NReq=154823143.
          There are    75 degrees of freedom in the 1st order CPHF.  IDoFFX=6 NUNeed=     0.
     69 vectors produced by pass  0 Test12= 7.44D-15 1.33D-09 XBig12= 1.13D-01 1.41D-01.
 AX will form    69 AO Fock derivatives at one time.
     69 vectors produced by pass  1 Test12= 7.44D-15 1.33D-09 XBig12= 1.65D-02 2.92D-02.
     69 vectors produced by pass  2 Test12= 7.44D-15 1.33D-09 XBig12= 2.07D-04 2.07D-03.
     69 vectors produced by pass  3 Test12= 7.44D-15 1.33D-09 XBig12= 1.18D-06 1.57D-04.
     69 vectors produced by pass  4 Test12= 7.44D-15 1.33D-09 XBig12= 5.18D-09 1.20D-05.
     69 vectors produced by pass  5 Test12= 7.44D-15 1.33D-09 XBig12= 1.86D-11 5.11D-07.
     33 vectors produced by pass  6 Test12= 7.44D-15 1.33D-09 XBig12= 5.20D-14 2.01D-08.
 InvSVY:  IOpt=1 It=  1 EMax= 2.78D-16
 Solved reduced A of dimension   447 with    75 vectors.
 End of Minotr F.D. properties file   721 does not exist.
 End of Minotr F.D. properties file   722 does not exist.
 End of Minotr F.D. properties file   788 does not exist.
   1 Symmetry operations used in ECPInt.
 ECPInt:  NShTT=    7503 NPrTT=   29182 LenC2=    7209 LenP2D=   20221.
 LDataN:  DoStor=T MaxTD1= 4 Len=   56
 Calling FoFJK, ICntrl=    100127 FMM=F ISym2X=0 I1Cent= 0 IOpClX= 0 NMat=1 NMatS=1 NMatT=0.
 -------------------------------------------------------------------
 Center     Atomic                   Forces (Hartrees/Bohr)
 Number     Number              X              Y              Z
 -------------------------------------------------------------------
      1        6          -0.003272803    0.001770435   -0.005225079
      2        6           0.000201679    0.001373167   -0.000530938
      3        6           0.000205860   -0.001213847   -0.000132248
      4        6          -0.003025945   -0.001495695   -0.003566329
      5        6           0.003093450    0.001638646    0.004143280
      6        6           0.003555562   -0.001824588    0.005667688
      7        1          -0.000142550    0.000119670   -0.000286098
      8        1          -0.000129840   -0.000087149   -0.000153321
      9        1          -0.000170837   -0.000086910   -0.000428563
     10        1          -0.000081408    0.000014330   -0.000150275
     11        1           0.000035746    0.000095482    0.000339397
     12        1           0.000047989   -0.000089989    0.000477263
     13        7          -0.000018988    0.000286682   -0.000041389
     14        1          -0.000181266   -0.000050388   -0.000094198
     15        1           0.000147680    0.000228809   -0.000175582
     16        7           0.000213462   -0.000452339   -0.000330616
     17        1           0.000093820   -0.000037001    0.000052163
     18        1          -0.000112253   -0.000026235   -0.000067737
     19        7          -0.000282251   -0.000380267    0.000110206
     20        1          -0.000047240   -0.000015332    0.000156347
     21        1          -0.000006278   -0.000010058   -0.000044326
     22        7          -0.000083976    0.000169442    0.000240278
     23        1          -0.000031457    0.000010151    0.000061183
     24        1          -0.000008157    0.000062984   -0.000021108
 -------------------------------------------------------------------
 Cartesian Forces:  Max     0.005667688 RMS     0.001435105
 IRC-IRC-IRC-IRC-IRC-IRC-IRC-IRC-IRC-IRC-IRC-IRC-IRC-IRC-IRC-IRC-IRC-IRC
 Pt  2 Step number   1 out of a maximum of  20
 Modified Bulirsch-Stoer Extrapolation Cycles:
    EPS =    0.000010000000000
      PEZero:  N= 2 I= 1 D=  6.84D-04 Err=  4.94D-06
 Maximum DWI energy   std dev =  0.000000541 at pt    14
 Maximum DWI gradient std dev =  0.012792245 at pt    15
 CORRECTOR INTEGRATION CONVERGENCE:
   Recorrection delta-x convergence threshold:    0.010000
   Delta-x Convergence Met
 Point Number:   2          Path Number:   1
   CHANGE IN THE REACTION COORDINATE =    0.13128
   NET REACTION COORDINATE UP TO THIS POINT =    0.26258
  # OF POINTS ALONG THE PATH =   2
  # OF STEPS =   1

 Calculating another point on the path.
 IRC-IRC-IRC-IRC-IRC-IRC-IRC-IRC-IRC-IRC-IRC-IRC-IRC-IRC-IRC-IRC-IRC-IRC
                          Input orientation:                          
 ---------------------------------------------------------------------
 Center     Atomic      Atomic             Coordinates (Angstroms)
 Number     Number       Type             X           Y           Z
 ---------------------------------------------------------------------
      1          6           0       -0.026851    1.293060   -0.750488
      2          6           0       -1.230885    0.637556   -0.664690
      3          6           0       -1.258526   -0.787140   -0.604721
      4          6           0       -0.109156   -1.514261   -0.757056
      5          6           0        1.358066   -0.691549    0.910859
      6          6           0        1.117789    0.670319    0.980884
      7          1           0       -0.014150    2.374818   -0.666382
      8          1           0       -0.111968   -2.577192   -0.546837
      9          1           0        0.811674   -1.377410    1.534987
     10          1           0        0.350253    1.016853    1.660499
     11          1           0        0.705654   -1.158665   -1.365204
     12          1           0        0.805551    0.874818   -1.292272
     13          7           0        2.247904    1.517347    0.703394
     14          1           0        2.051071    2.469566    0.437217
     15          1           0        3.017030    1.434468    1.357951
     16          7           0        2.596569   -1.143434    0.429531
     17          1           0        3.122114   -0.482769   -0.123562
     18          1           0        2.701050   -2.115371    0.194219
     19          7           0       -2.416232    1.308136   -0.268226
     20          1           0       -2.405078    2.311994   -0.358763
     21          1           0       -3.276237    0.878512   -0.581288
     22          7           0       -2.465868   -1.370589   -0.155926
     23          1           0       -2.532960   -2.373982   -0.193949
     24          1           0       -2.920379   -0.935508    0.635504
 ---------------------------------------------------------------------
                    Distance matrix (angstroms):
                    1          2          3          4          5
     1  C    0.000000
     2  C    1.373588   0.000000
     3  C    2.421879   1.426225   0.000000
     4  C    2.808535   2.428399   1.368562   0.000000
     5  C    2.935429   3.309312   3.025339   2.368868   0.000000
     6  C    2.166946   2.867971   3.207055   3.049298   1.384674
     7  H    1.085097   2.120973   3.398566   3.891295   3.711235
     8  H    3.876540   3.405946   2.126554   1.083523   2.800272
     9  H    3.613575   3.615344   3.035209   2.473886   1.076330
    10  H    2.455882   2.837317   3.312669   3.530179   2.120445
    11  H    2.631614   2.732638   2.138777   1.077130   2.413359
    12  H    1.077660   2.144114   2.737744   2.613588   2.759088
    13  N    2.708983   3.840269   4.395097   4.108442   2.390413
    14  H    2.666940   3.916848   4.758697   4.686549   3.270663
    15  H    3.705499   4.771889   5.202691   4.789707   2.733496
    16  N    3.769785   4.361038   4.007291   2.977658   1.403483
    17  H    3.669139   4.527311   4.417483   3.450565   2.055597
    18  H    4.466689   4.876109   4.252145   3.027129   2.084333
    19  N    2.437610   1.418417   2.417373   3.677972   4.431062
    20  H    2.616799   2.067864   3.313564   4.479969   4.979404
    21  H    3.280089   2.061183   2.616506   3.973242   5.115502
    22  N    3.660236   2.411777   1.414038   2.436409   4.027604
    23  H    4.476328   3.314567   2.076291   2.632685   4.380783
    24  H    3.906404   2.649419   2.078925   3.190165   4.294233
                    6          7          8          9         10
     6  C    0.000000
     7  H    2.626801   0.000000
     8  H    3.793752   4.954418   0.000000
     9  H    2.143345   4.428004   2.574214   0.000000
    10  H    1.082162   2.718682   4.243010   2.441548   0.000000
    11  H    3.003192   3.673141   1.830423   2.910360   3.743537
    12  H    2.303596   1.820343   3.648820   3.614687   2.991042
    13  N    1.439312   2.780005   4.888488   3.336753   2.183490
    14  H    2.098542   2.343511   5.578249   4.188129   2.549427
    15  H    2.081638   3.764336   5.432518   3.577931   2.716181
    16  N    2.404263   4.516079   3.216384   2.112493   3.350830
    17  H    2.562563   4.277452   3.876216   2.981493   3.621457
    18  H    3.299337   5.317399   2.945422   2.431457   4.181752
    19  N    3.802156   2.658258   4.525818   4.569804   3.385006
    20  H    4.111003   2.411455   5.403504   5.248379   3.653308
    21  H    4.668103   3.589900   4.685688   5.126287   4.265697
    22  N    4.277878   4.505503   2.673863   3.688023   4.114585
    23  H    4.896526   5.396174   2.455000   3.894733   4.821789
    24  H    4.359446   4.593401   3.461247   3.864268   3.944535
                   11         12         13         14         15
    11  H    0.000000
    12  H    2.037241   0.000000
    13  N    3.717348   2.544781   0.000000
    14  H    4.268832   2.661893   1.008124   0.000000
    15  H    4.413883   3.496788   1.013345   1.688862   0.000000
    16  N    2.607080   3.200889   2.697466   3.653956   2.772062
    17  H    2.799605   2.928376   2.334215   3.190279   2.425225
    18  H    2.707156   3.839765   3.696111   4.637150   3.749062
    19  N    4.127304   3.408273   4.768856   4.669408   5.672808
    20  H    4.768128   3.639375   4.838376   4.529423   5.754686
    21  H    4.540932   4.143248   5.707421   5.652346   6.608701
    22  N    3.400855   4.127386   5.594484   5.958300   6.342108
    23  H    3.652047   4.786091   6.229312   6.698632   6.907609
    24  H    4.147378   4.569043   5.721211   6.029027   6.433626
                   16         17         18         19         20
    16  N    0.000000
    17  H    1.009252   0.000000
    18  H    1.005460   1.715713   0.000000
    19  N    5.623632   5.822503   6.174206   0.000000
    20  H    6.130078   6.198053   6.780847   1.007994   0.000000
    21  H    6.292843   6.557552   6.729985   1.011035   1.692130
    22  N    5.101237   5.658163   5.232049   2.681537   3.688666
    23  H    5.311783   5.963346   5.254751   3.684717   4.690618
    24  H    5.524706   6.106789   5.760839   2.470795   3.435167
                   21         22         23         24
    21  H    0.000000
    22  N    2.428186   0.000000
    23  H    3.358752   1.006352   0.000000
    24  H    2.213117   1.011058   1.705079   0.000000
 Symmetry turned off by external request.
 Stoichiometry    C6H14N4
 Framework group  C1[X(C6H14N4)]
 Deg. of freedom    66
 Full point group                 C1      NOp   1
 Rotational constants (GHZ):           1.9760677           0.9367882           0.7091431
 Basis read from rwf:  (5D, 7F)
 Pseudo-potential data read from rwf file.
   182 basis functions,   360 primitive gaussians,   182 cartesian basis functions
    39 alpha electrons       39 beta electrons
       nuclear repulsion energy       559.4792146484 Hartrees.
 NAtoms=   24 NActive=   24 NUniq=   24 SFac= 1.00D+00 NAtFMM=   60 NAOKFM=F Big=F
 Integral buffers will be    131072 words long.
 Raffenetti 2 integral format.
 Two-electron integral symmetry is turned off.
 One-electron integrals computed using PRISM.
   1 Symmetry operations used in ECPInt.
 ECPInt:  NShTT=    7503 NPrTT=   29182 LenC2=    7207 LenP2D=   20204.
 LDataN:  DoStor=T MaxTD1= 2 Len=   12
 NBasis=   182 RedAO= T EigKep=  5.05D-05  NBF=   182
 NBsUse=   182 1.00D-06 EigRej= -1.00D+00 NBFU=   182
 Initial guess from the checkpoint file:  "dairc10-testf.chk"
 B after Tr=    -0.000122    0.000018   -0.000077
         Rot=    1.000000    0.000007   -0.000006   -0.000002 Ang=   0.00 deg.
 ExpMin= 9.52D-02 ExpMax= 1.97D+04 ExpMxC= 6.73D+02 IAcc=3 IRadAn=         5 AccDes= 0.00D+00
 Harris functional with IExCor= 1009 and IRadAn=       5 diagonalized for initial guess.
 HarFok:  IExCor= 1009 AccDes= 0.00D+00 IRadAn=         5 IDoV= 1 UseB2=F ITyADJ=14
 ICtDFT=  3500011 ScaDFX=  1.000000  1.000000  1.000000  1.000000
 FoFCou: FMM=F IPFlag=           0 FMFlag=      100000 FMFlg1=           0
         NFxFlg=           0 DoJE=T BraDBF=F KetDBF=T FulRan=T
         wScrn=  0.000000 ICntrl=       500 IOpCl=  0 I1Cent=   200000004 NGrid=           0
         NMat0=    1 NMatS0=      1 NMatT0=    0 NMatD0=    1 NMtDS0=    0 NMtDT0=    0
 Symmetry not used in FoFCou.
 Requested convergence on RMS density matrix=1.00D-08 within  32 cycles.
 Requested convergence on MAX density matrix=1.00D-06.
 Requested convergence on             energy=1.00D-06.
 No special actions if energy rises.
 SCF Done:  E(RM062X) =  -455.771499803     A.U. after   11 cycles
            NFock= 11  Conv=0.91D-08     -V/T= 2.0044
 QCSCF skips out because SCF is already converged.
 DoSCS=F DFT=T ScalE2(SS,OS)=  1.000000  1.000000
 Range of M.O.s used for correlation:     1   182
 NBasis=   182 NAE=    39 NBE=    39 NFC=     0 NFV=     0
 NROrb=    182 NOA=    39 NOB=    39 NVA=   143 NVB=   143

 **** Warning!!: The largest alpha MO coefficient is  0.31363273D+02

   1 Symmetry operations used in ECPInt.
 ECPInt:  NShTT=    7503 NPrTT=   29182 LenC2=    7207 LenP2D=   20204.
 LDataN:  DoStor=T MaxTD1= 3 Len=   28
 Symmetrizing basis deriv contribution to polar:
 IMax=3 JMax=2 DiffMx= 0.00D+00
 G2DrvN: will do    25 centers at a time, making    1 passes.
 Calling FoFCou, ICntrl=  3107 FMM=F I1Cent=   0 AccDes= 1.00D-11.
 End of G2Drv F.D. properties file   721 does not exist.
 End of G2Drv F.D. properties file   722 does not exist.
 End of G2Drv F.D. properties file   788 does not exist.
          IDoAtm=111111111111111111111111
          Differentiating once with respect to nuclear coordinates.
 Keep R1 ints in memory in canonical form, NReq=154823143.
          There are    75 degrees of freedom in the 1st order CPHF.  IDoFFX=6 NUNeed=     0.
     69 vectors produced by pass  0 Test12= 7.44D-15 1.33D-09 XBig12= 1.12D-01 1.40D-01.
 AX will form    69 AO Fock derivatives at one time.
     69 vectors produced by pass  1 Test12= 7.44D-15 1.33D-09 XBig12= 1.61D-02 2.54D-02.
     69 vectors produced by pass  2 Test12= 7.44D-15 1.33D-09 XBig12= 2.07D-04 2.11D-03.
     69 vectors produced by pass  3 Test12= 7.44D-15 1.33D-09 XBig12= 1.16D-06 1.64D-04.
     69 vectors produced by pass  4 Test12= 7.44D-15 1.33D-09 XBig12= 5.03D-09 1.12D-05.
     69 vectors produced by pass  5 Test12= 7.44D-15 1.33D-09 XBig12= 1.79D-11 4.69D-07.
     33 vectors produced by pass  6 Test12= 7.44D-15 1.33D-09 XBig12= 5.05D-14 1.98D-08.
 InvSVY:  IOpt=1 It=  1 EMax= 3.89D-16
 Solved reduced A of dimension   447 with    75 vectors.
 End of Minotr F.D. properties file   721 does not exist.
 End of Minotr F.D. properties file   722 does not exist.
 End of Minotr F.D. properties file   788 does not exist.
   1 Symmetry operations used in ECPInt.
 ECPInt:  NShTT=    7503 NPrTT=   29182 LenC2=    7207 LenP2D=   20204.
 LDataN:  DoStor=T MaxTD1= 4 Len=   56
 Calling FoFJK, ICntrl=    100127 FMM=F ISym2X=0 I1Cent= 0 IOpClX= 0 NMat=1 NMatS=1 NMatT=0.
 -------------------------------------------------------------------
 Center     Atomic                   Forces (Hartrees/Bohr)
 Number     Number              X              Y              Z
 -------------------------------------------------------------------
      1        6          -0.004631415    0.002579853   -0.007439363
      2        6           0.000263351    0.001933828   -0.000735843
      3        6           0.000258384   -0.001704801   -0.000175727
      4        6          -0.004310050   -0.002198176   -0.005138065
      5        6           0.004438718    0.002265112    0.005919716
      6        6           0.005083488   -0.002527825    0.008112509
      7        1          -0.000211321    0.000178655   -0.000428330
      8        1          -0.000195508   -0.000132851   -0.000235978
      9        1          -0.000249873   -0.000139951   -0.000585064
     10        1          -0.000122630    0.000027488   -0.000199827
     11        1           0.000057616    0.000130016    0.000456137
     12        1           0.000089841   -0.000131058    0.000661161
     13        7          -0.000007749    0.000438547   -0.000043876
     14        1          -0.000263419   -0.000069431   -0.000135513
     15        1           0.000218733    0.000335800   -0.000247040
     16        7           0.000332493   -0.000667941   -0.000463224
     17        1           0.000131406   -0.000052722    0.000071043
     18        1          -0.000158138   -0.000038730   -0.000097337
     19        7          -0.000426492   -0.000540421    0.000130005
     20        1          -0.000069879   -0.000019837    0.000223501
     21        1          -0.000011553   -0.000015373   -0.000061002
     22        7          -0.000157301    0.000246599    0.000350520
     23        1          -0.000048882    0.000015103    0.000085420
     24        1          -0.000009819    0.000088116   -0.000023822
 -------------------------------------------------------------------
 Cartesian Forces:  Max     0.008112509 RMS     0.002048689
 IRC-IRC-IRC-IRC-IRC-IRC-IRC-IRC-IRC-IRC-IRC-IRC-IRC-IRC-IRC-IRC-IRC-IRC
 Pt  3 Step number   1 out of a maximum of  20
 Modified Bulirsch-Stoer Extrapolation Cycles:
    EPS =    0.000010000000000
      PEZero:  N= 2 I= 1 D=  6.84D-04 Err=  4.37D-06
 Maximum DWI energy   std dev =  0.000000541 at pt    14
 Maximum DWI gradient std dev =  0.007439151 at pt    16
 CORRECTOR INTEGRATION CONVERGENCE:
   Recorrection delta-x convergence threshold:    0.010000
   Delta-x Convergence Met
 Point Number:   3          Path Number:   1
   CHANGE IN THE REACTION COORDINATE =    0.13129
   NET REACTION COORDINATE UP TO THIS POINT =    0.39387
  # OF POINTS ALONG THE PATH =   3
  # OF STEPS =   1

 Calculating another point on the path.
 IRC-IRC-IRC-IRC-IRC-IRC-IRC-IRC-IRC-IRC-IRC-IRC-IRC-IRC-IRC-IRC-IRC-IRC
                          Input orientation:                          
 ---------------------------------------------------------------------
 Center     Atomic      Atomic             Coordinates (Angstroms)
 Number     Number       Type             X           Y           Z
 ---------------------------------------------------------------------
      1          6           0       -0.032076    1.295982   -0.758733
      2          6           0       -1.230583    0.639709   -0.665500
      3          6           0       -1.258240   -0.789038   -0.604911
      4          6           0       -0.113997   -1.516743   -0.762779
      5          6           0        1.363047   -0.688977    0.917420
      6          6           0        1.123491    0.667483    0.989910
      7          1           0       -0.017009    2.377249   -0.672196
      8          1           0       -0.114622   -2.579021   -0.550075
      9          1           0        0.807950   -1.379911    1.527829
     10          1           0        0.348278    1.017451    1.658240
     11          1           0        0.706822   -1.156811   -1.359592
     12          1           0        0.807606    0.872674   -1.284084
     13          7           0        2.247900    1.517784    0.703354
     14          1           0        2.047553    2.468722    0.435386
     15          1           0        3.020103    1.438959    1.354794
     16          7           0        2.596900   -1.144087    0.429094
     17          1           0        3.123827   -0.483451   -0.122631
     18          1           0        2.699010   -2.115932    0.192918
     19          7           0       -2.416657    1.307620   -0.268115
     20          1           0       -2.406010    2.311741   -0.355779
     21          1           0       -3.276406    0.878319   -0.582085
     22          7           0       -2.466036   -1.370352   -0.155586
     23          1           0       -2.533629   -2.373783   -0.192826
     24          1           0       -2.920521   -0.934347    0.635215
 ---------------------------------------------------------------------
                    Distance matrix (angstroms):
                    1          2          3          4          5
     1  C    0.000000
     2  C    1.369601   0.000000
     3  C    2.423726   1.430298   0.000000
     4  C    2.813920   2.430331   1.365199   0.000000
     5  C    2.948884   3.316317   3.032927   2.385356   0.000000
     6  C    2.188172   2.877989   3.215206   3.061721   1.379357
     7  H    1.084829   2.119400   3.401552   3.896253   3.719298
     8  H    3.881495   3.408653   2.124832   1.083365   2.812350
     9  H    3.618620   3.611810   3.027681   2.472973   1.076160
    10  H    2.462521   2.834653   3.311519   3.535134   2.119072
    11  H    2.631196   2.731809   2.136883   1.076791   2.415426
    12  H    1.077149   2.142693   2.736838   2.613508   2.755701
    13  N    2.717570   3.839873   4.396136   4.115393   2.387171
    14  H    2.669474   3.911958   4.756415   4.689544   3.266798
[...]
     19          7           0       -2.059404    1.404709   -0.372646
     20          1           0       -2.074330    2.396250   -0.528740
     21          1           0       -2.894812    0.955403   -0.039940
     22          7           0       -1.823343   -1.090694    0.611654
     23          1           0       -2.006815   -2.054046    0.842408
     24          1           0       -1.563610   -0.498382    1.387698
 ---------------------------------------------------------------------
                    Distance matrix (angstroms):
                    1          2          3          4          5
     1  C    0.000000
     2  C    1.342793   0.000000
     3  C    2.485683   1.493857   0.000000
     4  C    3.008133   2.482657   1.338259   0.000000
     5  C    3.689885   3.584793   3.234916   3.652273   0.000000
     6  C    3.663020   3.491482   3.557419   4.361032   1.340376
     7  H    1.081927   2.119919   3.477436   4.052639   4.489040
     8  H    4.060731   3.473829   2.113204   1.081697   3.954177
     9  H    4.353543   3.995123   3.240892   3.528475   1.081300
    10  H    4.355328   3.894444   3.855686   4.814619   2.107164
    11  H    2.803788   2.711143   2.103862   1.077573   4.180130
    12  H    1.077208   2.103005   2.706928   2.802066   3.385416
    13  N    3.356959   3.598857   4.182410   5.000224   2.394553
    14  H    2.512339   2.909508   3.791103   4.637483   2.850227
    15  H    4.202438   4.426044   5.084734   5.974250   3.215458
    16  N    3.533068   3.868537   3.648625   3.685295   1.379269
    17  H    3.353107   3.985244   4.126516   4.253251   2.051659
    18  H    3.903529   4.230245   3.769581   3.445815   2.087341
    19  N    2.414613   1.389197   2.411482   3.594082   4.473364
    20  H    2.661325   2.083980   3.347570   4.465071   5.092055
    21  H    3.290571   2.072813   2.537274   3.725253   4.907126
    22  N    3.624845   2.425521   1.403292   2.418653   3.420563
    23  H    4.483262   3.346004   2.070055   2.620449   3.782794
    24  H    3.752842   2.614364   2.060408   3.225590   3.131246
                    6          7          8          9         10
     6  C    0.000000
     7  H    4.237338   0.000000
     8  H    4.831811   5.118946   0.000000
     9  H    2.107238   5.262262   3.540148   0.000000
    10  H    1.083009   4.909269   5.189666   2.439758   0.000000
    11  H    4.900825   3.755959   1.850051   4.243927   5.510154
    12  H    3.695536   1.852260   3.769410   4.053168   4.554131
    13  N    1.427531   3.587311   5.681211   3.384976   2.178908
    14  H    2.072829   2.602841   5.463250   3.826914   2.794078
    15  H    2.090006   4.258850   6.644460   4.142141   2.498824
    16  N    2.395690   4.294720   4.053599   2.091852   3.370807
    17  H    2.599055   3.899543   4.791030   2.975595   3.672393
    18  H    3.290162   4.753124   3.645922   2.390724   4.184865
    19  N    4.026802   2.701812   4.475713   4.839131   4.120482
    20  H    4.478084   2.529118   5.404510   5.595037   4.594291
    21  H    4.508911   3.674557   4.445053   5.073564   4.407984
    22  N    3.541950   4.511087   2.695306   3.148966   3.434066
    23  H    4.116215   5.428441   2.473162   3.224888   3.939187
    24  H    2.918784   4.524710   3.564666   2.972108   2.599962
                   11         12         13         14         15
    11  H    0.000000
    12  H    2.416544   0.000000
    13  N    5.293783   3.472223   0.000000
    14  H    4.805709   2.804525   1.014393   0.000000
    15  H    6.284875   4.400563   1.007310   1.699913   0.000000
    16  N    3.875584   2.866769   2.812729   3.073920   3.689871
    17  H    4.265425   2.684178   2.464920   2.638976   3.278943
    18  H    3.545075   3.070988   3.794500   3.960061   4.688386
    19  N    3.934503   3.379563   4.066444   3.373002   4.673971
    20  H    4.657385   3.726149   4.213474   3.411384   4.677062
    21  H    4.232156   4.170053   4.784819   4.213633   5.367448
    22  N    3.387622   3.964715   4.458735   4.276530   5.223858
    23  H    3.684093   4.676607   5.204847   5.134159   5.970393
    24  H    4.132211   4.180273   3.863350   3.800294   4.508135
                   16         17         18         19         20
    16  N    0.000000
    17  H    1.006134   0.000000
    18  H    1.001052   1.736250   0.000000
    19  N    5.012583   5.090399   5.488599   0.000000
    20  H    5.553802   5.463571   6.107735   1.003863   0.000000
    21  H    5.594456   5.811884   6.006316   1.005224   1.728628
    22  N    4.271922   4.868066   4.494583   2.692881   3.677264
    23  H    4.643609   5.381502   4.713704   3.666348   4.657223
    24  H    4.200580   4.724184   4.625979   2.639390   3.508912
                   21         22         23         24
    21  H    0.000000
    22  N    2.399819   0.000000
    23  H    3.259426   1.007450   0.000000
    24  H    2.433873   1.010217   1.707003   0.000000
 Symmetry turned off by external request.
 Stoichiometry    C6H14N4
 Framework group  C1[X(C6H14N4)]
 Deg. of freedom    66
 Full point group                 C1      NOp   1
 Rotational constants (GHZ):           1.5099781           0.9442073           0.8214864

 **********************************************************************

            Population analysis using the SCF Density.

 **********************************************************************

 Alpha  occ. eigenvalues --  -14.75277 -14.75164 -14.73477 -14.71862 -10.58930
 Alpha  occ. eigenvalues --  -10.58844 -10.55856 -10.53451 -10.51703 -10.50962
 Alpha  occ. eigenvalues --   -1.04316  -1.00918  -0.99725  -0.96127  -0.86281
 Alpha  occ. eigenvalues --   -0.80383  -0.79782  -0.71001  -0.64532  -0.62040
 Alpha  occ. eigenvalues --   -0.60999  -0.60390  -0.57670  -0.56786  -0.55217
 Alpha  occ. eigenvalues --   -0.54079  -0.49963  -0.48900  -0.48003  -0.46463
 Alpha  occ. eigenvalues --   -0.44915  -0.42571  -0.42076  -0.39619  -0.38162
 Alpha  occ. eigenvalues --   -0.30797  -0.27297  -0.24972  -0.22384
 Alpha virt. eigenvalues --    0.02681   0.05616   0.07329   0.08452   0.08662
 Alpha virt. eigenvalues --    0.09714   0.11470   0.11745   0.12776   0.13521
 Alpha virt. eigenvalues --    0.14480   0.15314   0.16238   0.16743   0.17459
 Alpha virt. eigenvalues --    0.19641   0.20525   0.21006   0.22741   0.23909
 Alpha virt. eigenvalues --    0.24237   0.25588   0.26373   0.28589   0.29855
 Alpha virt. eigenvalues --    0.31180   0.31424   0.33070   0.33489   0.33612
 Alpha virt. eigenvalues --    0.34335   0.35445   0.37514   0.38087   0.38527
 Alpha virt. eigenvalues --    0.40407   0.41353   0.41952   0.42575   0.43436
 Alpha virt. eigenvalues --    0.43979   0.45454   0.45672   0.46713   0.47104
 Alpha virt. eigenvalues --    0.48109   0.48850   0.49767   0.50437   0.52325
 Alpha virt. eigenvalues --    0.52631   0.53172   0.53527   0.54936   0.55548
 Alpha virt. eigenvalues --    0.56566   0.57717   0.57785   0.58376   0.59512
 Alpha virt. eigenvalues --    0.59884   0.61176   0.62989   0.63093   0.64041
 Alpha virt. eigenvalues --    0.66418   0.67839   0.69881   0.70222   0.72243
 Alpha virt. eigenvalues --    0.72670   0.73677   0.76458   0.77970   0.79334
 Alpha virt. eigenvalues --    0.81450   0.85083   0.86439   0.88578   1.44109
 Alpha virt. eigenvalues --    1.46870   1.49425   1.51390   1.53086   1.55351
 Alpha virt. eigenvalues --    1.56324   1.58071   1.59616   1.60562   1.61452
 Alpha virt. eigenvalues --    1.64431   1.66381   1.68491   1.69315   1.72541
 Alpha virt. eigenvalues --    1.72988   1.77955   1.81121   1.84740   1.87990
 Alpha virt. eigenvalues --    1.91692   2.01426   2.03516   2.05677   2.08163
 Alpha virt. eigenvalues --    2.09597   2.10532   2.15363   2.16343   2.16705
 Alpha virt. eigenvalues --    2.18422   2.21601   2.22233   2.24774   2.26144
 Alpha virt. eigenvalues --    2.34234   2.41557   2.43667   2.48060   2.49472
 Alpha virt. eigenvalues --    2.53167   2.54884   2.55556   2.57091   2.57921
 Alpha virt. eigenvalues --    2.66219   2.66589   2.72436   2.74691   2.85829
 Alpha virt. eigenvalues --    2.93525   2.99170   3.05293  21.57636  21.66195
 Alpha virt. eigenvalues --   21.71079  22.06112  22.10171  22.12884  31.81648
 Alpha virt. eigenvalues --   31.87391  31.89132  31.91527
          Condensed to atoms (all electrons):
               1          2          3          4          5          6
     1  C    5.510337   0.492410   0.012104  -0.048477   0.029082  -0.007153
     2  C    0.492410   5.383134   0.008339  -0.039578   0.030088  -0.077243
     3  C    0.012104   0.008339   5.373475   0.514334  -0.035558   0.039832
     4  C   -0.048477  -0.039578   0.514334   5.352861  -0.003500  -0.000905
     5  C    0.029082   0.030088  -0.035558  -0.003500   5.141917   0.417733
     6  C   -0.007153  -0.077243   0.039832  -0.000905   0.417733   5.402822
     7  H    0.352434  -0.041974   0.021110   0.000627  -0.000176   0.002619
     8  H   -0.001744   0.020273  -0.026933   0.345353  -0.000891   0.000197
     9  H    0.000642   0.002229  -0.003747  -0.006016   0.367619  -0.035665
    10  H   -0.000341  -0.005628  -0.000270   0.000392  -0.058509   0.407668
    11  H    0.000571   0.001167  -0.025706   0.363175  -0.000640   0.000478
    12  H    0.327250   0.004234  -0.005348   0.003767  -0.008876  -0.009972
    13  N   -0.003574   0.013126  -0.005762  -0.000207  -0.085702   0.274531
    14  H   -0.001678   0.002711  -0.003423  -0.000176  -0.026306  -0.042203
    15  H    0.000772   0.000220   0.000243   0.000011   0.020785  -0.067201
    16  N   -0.043708   0.027219  -0.028972   0.020031   0.279650  -0.085774
    17  H    0.004570  -0.002658   0.000595  -0.000224  -0.039022  -0.003249
    18  H   -0.000773   0.000231   0.000997   0.002664  -0.039520   0.011410
    19  N   -0.094837   0.191003  -0.014837   0.007390  -0.004724   0.005263
    20  H   -0.018684  -0.038415   0.011341   0.000168  -0.000087  -0.000330
    21  H    0.016995  -0.010702  -0.026326  -0.003134   0.000264  -0.000366
    22  N    0.001259   0.021631   0.166688  -0.114199  -0.019180  -0.000338
    23  H    0.000300   0.009603  -0.053838  -0.025481   0.000023   0.001263
    24  H   -0.005698  -0.036358  -0.011890   0.023445   0.006625   0.010026
               7          8          9         10         11         12
     1  C    0.352434  -0.001744   0.000642  -0.000341   0.000571   0.327250
     2  C   -0.041974   0.020273   0.002229  -0.005628   0.001167   0.004234
     3  C    0.021110  -0.026933  -0.003747  -0.000270  -0.025706  -0.005348
     4  C    0.000627   0.345353  -0.006016   0.000392   0.363175   0.003767
     5  C   -0.000176  -0.000891   0.367619  -0.058509  -0.000640  -0.008876
     6  C    0.002619   0.000197  -0.035665   0.407668   0.000478  -0.009972
     7  H    0.520368  -0.000002  -0.000015   0.000017   0.000195  -0.025391
     8  H   -0.000002   0.535479   0.000602  -0.000012  -0.026206   0.000223
     9  H   -0.000015   0.000602   0.531615  -0.005259   0.000068  -0.000008
    10  H    0.000017  -0.000012  -0.005259   0.552344   0.000004  -0.000129
    11  H    0.000195  -0.026206   0.000068   0.000004   0.481788   0.002127
    12  H   -0.025391   0.000223  -0.000008  -0.000129   0.002127   0.488720
    13  N   -0.000771   0.000001   0.004798  -0.065440  -0.000021  -0.000420
    14  H   -0.000794   0.000003  -0.000240   0.007486   0.000006   0.003573
    15  H    0.000020  -0.000001  -0.000086  -0.006393   0.000000  -0.000006
    16  N   -0.001042  -0.000164  -0.030644   0.004959  -0.001127   0.025914
    17  H    0.000072  -0.000004   0.005472   0.000660  -0.000017  -0.002338
    18  H    0.000008  -0.000001  -0.007997  -0.000151  -0.000063   0.000409
    19  N    0.002676  -0.000342  -0.000371   0.001338  -0.000607   0.006494
    20  H    0.002810   0.000042  -0.000011  -0.000034  -0.000132   0.000413
    21  H    0.000037  -0.000144  -0.000022   0.000007  -0.000032  -0.000308
    22  N   -0.000325   0.000194   0.015647  -0.002581   0.008145  -0.000321
    23  H    0.000041   0.002360   0.000815   0.000145   0.000622  -0.000149
    24  H   -0.000098   0.000084  -0.001395   0.002350  -0.000172  -0.000233
              13         14         15         16         17         18
     1  C   -0.003574  -0.001678   0.000772  -0.043708   0.004570  -0.000773
     2  C    0.013126   0.002711   0.000220   0.027219  -0.002658   0.000231
     3  C   -0.005762  -0.003423   0.000243  -0.028972   0.000595   0.000997
     4  C   -0.000207  -0.000176   0.000011   0.020031  -0.000224   0.002664
     5  C   -0.085702  -0.026306   0.020785   0.279650  -0.039022  -0.039520
     6  C    0.274531  -0.042203  -0.067201  -0.085774  -0.003249   0.011410
     7  H   -0.000771  -0.000794   0.000020  -0.001042   0.000072   0.000008
     8  H    0.000001   0.000003  -0.000001  -0.000164  -0.000004  -0.000001
     9  H    0.004798  -0.000240  -0.000086  -0.030644   0.005472  -0.007997
    10  H   -0.065440   0.007486  -0.006393   0.004959   0.000660  -0.000151
    11  H   -0.000021   0.000006   0.000000  -0.001127  -0.000017  -0.000063
    12  H   -0.000420   0.003573  -0.000006   0.025914  -0.002338   0.000409
    13  N    6.836915   0.333783   0.353908   0.031620   0.020973   0.000233
    14  H    0.333783   0.426065  -0.032793   0.010746  -0.003273   0.000031
    15  H    0.353908  -0.032793   0.433130  -0.001320   0.000084  -0.000051
    16  N    0.031620   0.010746  -0.001320   6.790152   0.337392   0.341411
    17  H    0.020973  -0.003273   0.000084   0.337392   0.364890  -0.025226
    18  H    0.000233   0.000031  -0.000051   0.341411  -0.025226   0.396397
    19  N   -0.002335   0.000424  -0.000184   0.000563   0.000004   0.000032
    20  H    0.000322   0.000146  -0.000018   0.000026  -0.000003   0.000001
    21  H   -0.000041  -0.000032   0.000009  -0.000009   0.000002   0.000001
    22  N    0.001035   0.000561  -0.000047  -0.001537  -0.000067  -0.000491
    23  H   -0.000070  -0.000013   0.000000  -0.000292   0.000006  -0.000016
    24  H   -0.001784  -0.000508   0.000134  -0.000734   0.000038  -0.000049
              19         20         21         22         23         24
     1  C   -0.094837  -0.018684   0.016995   0.001259   0.000300  -0.005698
     2  C    0.191003  -0.038415  -0.010702   0.021631   0.009603  -0.036358
     3  C   -0.014837   0.011341  -0.026326   0.166688  -0.053838  -0.011890
     4  C    0.007390   0.000168  -0.003134  -0.114199  -0.025481   0.023445
     5  C   -0.004724  -0.000087   0.000264  -0.019180   0.000023   0.006625
     6  C    0.005263  -0.000330  -0.000366  -0.000338   0.001263   0.010026
     7  H    0.002676   0.002810   0.000037  -0.000325   0.000041  -0.000098
     8  H   -0.000342   0.000042  -0.000144   0.000194   0.002360   0.000084
     9  H   -0.000371  -0.000011  -0.000022   0.015647   0.000815  -0.001395
    10  H    0.001338  -0.000034   0.000007  -0.002581   0.000145   0.002350
    11  H   -0.000607  -0.000132  -0.000032   0.008145   0.000622  -0.000172
    12  H    0.006494   0.000413  -0.000308  -0.000321  -0.000149  -0.000233
    13  N   -0.002335   0.000322  -0.000041   0.001035  -0.000070  -0.001784
    14  H    0.000424   0.000146  -0.000032   0.000561  -0.000013  -0.000508
    15  H   -0.000184  -0.000018   0.000009  -0.000047   0.000000   0.000134
    16  N    0.000563   0.000026  -0.000009  -0.001537  -0.000292  -0.000734
    17  H    0.000004  -0.000003   0.000002  -0.000067   0.000006   0.000038
    18  H    0.000032   0.000001   0.000001  -0.000491  -0.000016  -0.000049
    19  N    6.780918   0.340997   0.324626   0.056758   0.001021   0.004295
    20  H    0.340997   0.403071  -0.025217   0.000298   0.000012  -0.000142
    21  H    0.324626  -0.025217   0.368658   0.010456  -0.000201  -0.002860
    22  N    0.056758   0.000298   0.010456   6.812794   0.365771   0.318292
    23  H    0.001021   0.000012  -0.000201   0.365771   0.420320  -0.031203
    24  H    0.004295  -0.000142  -0.002860   0.318292  -0.031203   0.414468
 Mulliken charges:
               1
     1  C   -0.522059
     2  C    0.044936
     3  C    0.093551
     4  C   -0.392318
     5  C    0.028905
     6  C   -0.243440
     7  H    0.167552
     8  H    0.151636
     9  H    0.161968
    10  H    0.167377
    11  H    0.196377
    12  H    0.190376
    13  N   -0.705116
    14  H    0.325903
    15  H    0.298782
    16  N   -0.674358
    17  H    0.341323
    18  H    0.320513
    19  N   -0.605564
    20  H    0.323426
    21  H    0.348342
    22  N   -0.640443
    23  H    0.308963
    24  H    0.313368
 Sum of Mulliken charges =  -0.00000
 Mulliken charges with hydrogens summed into heavy atoms:
               1
     1  C   -0.164131
     2  C    0.044936
     3  C    0.093551
     4  C   -0.044305
     5  C    0.190873
     6  C   -0.076063
    13  N   -0.080430
    16  N   -0.012522
    19  N    0.066205
    22  N   -0.018112
 APT charges:
               1
     1  C   -0.641477
     2  C   -0.215250
     3  C   -0.244330
     4  C   -0.653167
     5  C   -0.224160
     6  C   -0.388677
     7  H    0.541635
     8  H    0.539677
     9  H    0.399352
    10  H    0.447465
    11  H    0.437921
    12  H    0.282182
    13  N   -1.270369
    14  H    0.246404
    15  H    0.836895
    16  N   -1.184616
    17  H    0.521359
    18  H    0.624097
    19  N   -1.433111
    20  H    0.740412
    21  H    0.668429
    22  N   -1.090498
    23  H    0.710378
    24  H    0.349449
 Sum of APT charges =  -0.00000
 APT charges with hydrogens summed into heavy atoms:
               1
     1  C    0.182340
     2  C   -0.215250
     3  C   -0.244330
     4  C    0.324432
     5  C    0.175192
     6  C    0.058787
    13  N   -0.187070
    16  N   -0.039160
    19  N   -0.024270
    22  N   -0.030671
 Electronic spatial extent (au):  <R**2>=           1663.1362
 Charge=              0.0000 electrons
 Dipole moment (field-independent basis, Debye):
    X=             -1.4661    Y=              0.1188    Z=              0.6407  Tot=              1.6044
 Quadrupole moment (field-independent basis, Debye-Ang):
   XX=            -65.9548   YY=            -51.6781   ZZ=            -64.3770
   XY=             -2.1796   XZ=             -7.5149   YZ=             -0.3599
 Traceless Quadrupole moment (field-independent basis, Debye-Ang):
   XX=             -5.2849   YY=              8.9919   ZZ=             -3.7070
   XY=             -2.1796   XZ=             -7.5149   YZ=             -0.3599
 Octapole moment (field-independent basis, Debye-Ang**2):
  XXX=            -18.2362  YYY=              8.8139  ZZZ=             17.2104  XYY=             -5.8580
  XXY=              7.8694  XXZ=             -6.2515  XZZ=              2.9664  YZZ=              2.2927
  YYZ=              6.0227  XYZ=             11.3635
 Hexadecapole moment (field-independent basis, Debye-Ang**3):
 XXXX=          -1021.1878 YYYY=           -535.4622 ZZZZ=           -616.3345 XXXY=            -50.1014
 XXXZ=           -205.4242 YYYX=            -20.8735 YYYZ=            -30.6989 ZZZX=           -171.7634
 ZZZY=             -6.1279 XXYY=           -237.3747 XXZZ=           -280.6805 YYZZ=           -191.0063
 XXYZ=             -3.0548 YYXZ=            -45.6413 ZZXY=              8.9487
 N-N= 5.482260867638D+02 E-N=-2.157436679897D+03  KE= 4.537989395879D+02
  Exact polarizability:   0.000   0.000   0.000   0.000   0.000   0.000
 Approx polarizability: 111.095  -3.875 131.937 -27.613  14.882 119.007

 This type of calculation cannot be archived.


 REFRAIN FROM ILLUSIONS, INSIST ON WORK AND NOT WORDS,
 PATIENTLY SEEK DIVINE AND SCIENTIFIC TRUTH.
 LAST WORDS OF MARIA MENDELEEVA TO HER SON DMITRI, C. 1850
 Job cpu time:       3 days  7 hours 27 minutes 45.6 seconds.
 Elapsed time:       0 days  5 hours  0 minutes 16.6 seconds.
 File lengths (MBytes):  RWF=    101 Int=      0 D2E=      0 Chk=      8 Scr=      1
 Normal termination of Gaussian 16 at Wed Apr 15 17:53:26 2020.
