 Entering Gaussian System, Link 0=g16
 Initial command:
 /opt/g16/l1.exe "/scratch/838/Gau-449805.inp" -scrdir="/scratch/838/"
 Entering Link 1 = /opt/g16/l1.exe PID=    449806.
  
 Copyright (c) 1988-2017, Gaussian, Inc.  All Rights Reserved.
  
 This is part of the Gaussian(R) 16 program.  It is based on
 the Gaussian(R) 09 system (copyright 2009, Gaussian, Inc.),
 the Gaussian(R) 03 system (copyright 2003, Gaussian, Inc.),
 the Gaussian(R) 98 system (copyright 1998, Gaussian, Inc.),
 the Gaussian(R) 94 system (copyright 1995, Gaussian, Inc.),
 the Gaussian 92(TM) system (copyright 1992, Gaussian, Inc.),
 the Gaussian 90(TM) system (copyright 1990, Gaussian, Inc.),
 the Gaussian 88(TM) system (copyright 1988, Gaussian, Inc.),
 the Gaussian 86(TM) system (copyright 1986, Carnegie Mellon
 University), and the Gaussian 82(TM) system (copyright 1983,
 Carnegie Mellon University). Gaussian is a federally registered
 trademark of Gaussian, Inc.
  
 This software contains proprietary and confidential information,
 including trade secrets, belonging to Gaussian, Inc.
  
 This software is provided under written license and may be
 used, copied, transmitted, or stored only in accord with that
 written license.
  
 The following legend is applicable only to US Government
 contracts under FAR:
  
                    RESTRICTED RIGHTS LEGEND
  
 Use, reproduction and disclosure by the US Government is
 subject to restrictions as set forth in subparagraphs (a)
 and (c) of the Commercial Computer Software - Restricted
 Rights clause in FAR 52.227-19.
  
 Gaussian, Inc.
 340 Quinnipiac St., Bldg. 40, Wallingford CT 06492
  
  
 ---------------------------------------------------------------
 Warning -- This program may not be used in any manner that
 competes with the business of Gaussian, Inc. or will provide
 assistance to any competitor of Gaussian, Inc.  The licensee
 of this program is prohibited from giving any competitor of
 Gaussian, Inc. access to this program.  By using this program,
 the user acknowledges that Gaussian, Inc. is engaged in the
 business of creating and licensing software in the field of
 computational chemistry and represents and warrants to the
 licensee that it is not a competitor of Gaussian, Inc. and that
 it will not use this program in any manner prohibited above.
 ---------------------------------------------------------------
  

 Cite this work as:
 Gaussian 16, Revision B.01,
 M. J. Frisch, G. W. Trucks, H. B. Schlegel, G. E. Scuseria, 
 M. A. Robb, J. R. Cheeseman, G. Scalmani, V. Barone, 
 G. A. Petersson, H. Nakatsuji, X. Li, M. Caricato, A. V. Marenich, 
 J. Bloino, B. G. Janesko, R. Gomperts, B. Mennucci, H. P. Hratchian, 
 J. V. Ortiz, A. F. Izmaylov, J. L. Sonnenberg, D. Williams-Young, 
 F. Ding, F. Lipparini, F. Egidi, J. Goings, B. Peng, A. Petrone, 
 T. Henderson, D. Ranasinghe, V. G. Zakrzewski, J. Gao, N. Rega, 
 G. Zheng, W. Liang, M. Hada, M. Ehara, K. Toyota, R. Fukuda, 
 J. Hasegawa, M. Ishida, T. Nakajima, Y. Honda, O. Kitao, H. Nakai, 
 T. Vreven, K. Throssell, J. A. Montgomery, Jr., J. E. Peralta, 
 F. Ogliaro, M. J. Bearpark, J. J. Heyd, E. N. Brothers, K. N. Kudin, 
 V. N. Staroverov, T. A. Keith, R. Kobayashi, J. Normand, 
 K. Raghavachari, A. P. Rendell, J. C. Burant, S. S. Iyengar, 
 J. Tomasi, M. Cossi, J. M. Millam, M. Klene, C. Adamo, R. Cammi, 
 J. W. Ochterski, R. L. Martin, K. Morokuma, O. Farkas, 
 J. B. Foresman, and D. J. Fox, Gaussian, Inc., Wallingford CT, 2016.
 
 ******************************************
 Gaussian 16:  ES64L-G16RevB.01 20-Dec-2017
                30-Jun-2020 
 ******************************************
 %nprocshared=16
 Will use up to   16 processors via shared memory.
 %mem=48GB
 %chk=MoCompH2CO2IRC_+2_M3_r.chk
 ----------------------------------------------------------------------
 # UBP86/GenECP Int=(Grid=Ultrafine,acc2e=12) SCF=(NoVarAcc,Tight,XQC,M
 axCyc=200) NoSymm # IRC=(Reverse,CalcAll,Recorrect=Never,Phase=(1,62),
 MaxPoints=1000,StepSize=10,maxcycle=1000,Report=cartesian)
 ----------------------------------------------------------------------
 1/6=1000,10=4,18=10,22=2,26=4,38=1,39=10,42=1000,44=3,71=1,101=1,102=62,129=10,131=1,172=1/1,23;
 2/12=2,15=1,17=6,18=5,29=1,40=1/2;
 3/5=7,11=2,16=1,17=8,25=1,27=12,30=1,71=2,74=404,75=-5,116=2,140=1/1,2,3;
 4//1;
 5/5=2,7=200,8=3,13=1,32=2,38=1,87=12/2,8;
 8/6=4,10=90,11=11,87=12/1;
 11/6=1,8=1,9=11,15=111,16=1,31=1,87=12/1,2,10;
 10/6=1,13=1,31=1,87=12/2;
 6/7=2,8=2,9=2,10=2,18=1,28=1,87=12/1;
 7/10=1,25=1,30=1,87=12/1,2,3,16;
 1/6=1000,10=4,18=10,22=2,26=4,39=10,42=1000,44=3,71=1,101=1,102=62,129=10,131=1/23(2);
 2/15=1,29=1/2;
 99/5=20/99;
 2/15=1,29=1/2;
 3/5=7,6=1,11=2,16=1,17=8,25=1,27=12,30=1,71=2,74=404,75=-5,82=7,116=2,140=1/1,2,3;
 4/5=5,16=3,69=1/1;
 5/5=2,7=200,8=3,13=1,32=2,38=1,87=12/2,8;
 8/6=4,10=90,11=11,87=12/1;
 11/6=1,8=1,9=11,15=111,16=1,31=1,87=12/1,2,10;
 10/6=1,13=1,31=1,87=12/2;
 7/10=1,25=1,30=1,87=12/1,2,3,16;
 1/6=1000,10=4,18=10,22=2,26=4,39=10,42=1000,44=3,71=1,101=1,102=62,129=10,131=1/23(-8);
 2/15=1,29=1/2;
 6/7=2,8=2,9=2,10=2,18=1,19=2,28=1,87=12/1;
 99/5=20/99;
 ----------------------------------------------------------------------
 IRC reverse from the transition state of the MHR [PY5Me2Mo(IV)(H)(H)]^
 +2 + CO2 --> HCOOH +[PY5Me2Mo(IV)O]^+2 2S+1=3 in gas phase
 ----------------------------------------------------------------------
 Symbolic Z-matrix:
 Charge =  2 Multiplicity = 3
 Mo                    0.01102  -0.00557  -0.94525 
 O                    -0.4271    0.69882  -2.61616 
 N                    -1.69555  -1.33701  -0.88031 
 N                     1.4812   -1.57771  -0.34547 
 N                     1.73902   1.34532  -0.87063 
 N                    -1.59465   1.4682   -0.39485 
 C                    -2.54726  -1.3738    0.1902 
 N                     0.01351   0.01175   1.32024 
 C                    -2.49169  -0.20221   1.22042 
 C                    -2.60556   1.14716   0.45925 
 C                     2.5519   -1.25999   0.44448 
 C                    -2.82212  -3.2351   -1.88518 
 H                    -2.92199  -3.9102   -2.73927 
 C                    -3.50394  -2.40093   0.27937 
 H                    -4.17028  -2.46791   1.13894 
 C                     2.64549   1.28611   0.15191 
 C                     3.73497   0.18679   2.14668 
 H                     3.72205  -0.65218   2.85748 
 H                     3.72532   1.12196   2.72609 
 H                     4.68673   0.14623   1.59673 
 C                    -3.68436   2.03      0.64212 
 H                    -4.50882   1.77043   1.30588 
 C                    -3.67932  -0.34367   2.20182 
 H                    -3.72508   0.50642   2.89796 
 H                    -3.59736  -1.26443   2.79891 
 H                    -4.63424  -0.38041   1.65695 
 C                     3.67304   2.24352   0.23112 
 H                     4.39445   2.22292   1.04692 
 C                     1.22607   0.21347   3.38985 
 H                     2.16012   0.36067   3.92955 
 C                    -1.15783  -0.13322   3.41945 
 H                    -2.08019  -0.27428   3.98057 
 C                     1.20202   0.14802   1.98705 
 C                     1.39728  -2.82976  -0.87932 
 H                     0.51604  -3.0392   -1.4881 
 C                     2.53315   0.11637   1.17289 
 C                    -1.15623  -0.1309    2.01473 
 C                    -3.71264   3.25886  -0.03385 
 H                    -4.55264   3.94507   0.11036 
 C                     3.58169  -2.19594   0.6392 
 H                     4.45338  -1.9432    1.24205 
 C                     1.87886   2.30226  -1.83686 
 H                     1.14071   2.2547   -2.64178 
 C                     0.03872   0.06645   4.11191 
 C                     3.79808   3.24026  -0.74907 
 H                     4.60368   3.97747  -0.6793 
 C                     2.89184   3.25968  -1.81619 
 H                     2.96093   3.99554  -2.62172 
 C                     2.37155  -3.80842  -0.6865 
 H                     2.24849  -4.79194  -1.14638 
 C                    -1.62785   2.65435  -1.06021 
 H                    -0.81753   2.82804  -1.76738 
 C                    -2.65659   3.58252  -0.89387 
 H                    -2.63002   4.52432  -1.44795 
 C                     3.50221  -3.47448   0.06568 
 H                     4.31269  -4.19407   0.21504 
 C                    -3.6338   -3.34903  -0.74848 
 H                    -4.38201  -4.14323  -0.66869 
 C                    -1.8688   -2.21759  -1.91143 
 H                    -1.22404  -2.06808  -2.78201 
 H                     0.092     0.27242  -3.60549 
 H                     1.0618   -0.95147  -2.46458 
 H                     0.04787   0.09866   5.20559 
 O                     2.17947  -2.10957  -3.72918 
 C                     1.39179  -1.18776  -3.60752 
 O                     0.78092  -0.37081  -4.37871 
 
 IRC-IRC-IRC-IRC-IRC-IRC-IRC-IRC-IRC-IRC-IRC-IRC-IRC-IRC-IRC-IRC-IRC-IRC
 ------------------------------------------------------------------------
 INPUT DATA FOR L123
 ------------------------------------------------------------------------
 GENERAL PARAMETERS:
 Rxn path following direction = Reverse
 Maximum points per path      =1000
 Step size                    =   0.100 bohr
 Integration scheme           = HPC                                 
    Redo corrector integration= Never                               
    DWI Weight Power          =  2
    DWI will use Hessian update vectors when possible.
 Initial Hessian              = CalcFC
 Hessian evaluation           = Analytic at all predictor steps
                              = Update at all corrector steps
 Hessian updating method      = Bofill                              
 ------------------------------------------------------------------------
 IRC-IRC-IRC-IRC-IRC-IRC-IRC-IRC-IRC-IRC-IRC-IRC-IRC-IRC-IRC-IRC-IRC-IRC
 Symmetry turned off by external request.
 Stoichiometry    C30H27MoN5O3(2+,3)
 Framework group  C1[X(C30H27MoN5O3)]
 Deg. of freedom   192
 Full point group                 C1      NOp   1
                          Input orientation:                          
 ---------------------------------------------------------------------
 Center     Atomic      Atomic             Coordinates (Angstroms)
 Number     Number       Type             X           Y           Z
 ---------------------------------------------------------------------
      1         42           0        0.011017   -0.005567   -0.945254
      2          8           0       -0.427103    0.698819   -2.616161
      3          7           0       -1.695552   -1.337014   -0.880311
      4          7           0        1.481203   -1.577714   -0.345467
      5          7           0        1.739017    1.345322   -0.870628
      6          7           0       -1.594649    1.468196   -0.394845
      7          6           0       -2.547255   -1.373800    0.190200
      8          7           0        0.013514    0.011751    1.320240
      9          6           0       -2.491690   -0.202208    1.220420
     10          6           0       -2.605557    1.147159    0.459248
     11          6           0        2.551904   -1.259985    0.444482
     12          6           0       -2.822121   -3.235099   -1.885184
     13          1           0       -2.921990   -3.910204   -2.739273
     14          6           0       -3.503940   -2.400926    0.279370
     15          1           0       -4.170278   -2.467911    1.138935
     16          6           0        2.645493    1.286112    0.151907
     17          6           0        3.734967    0.186791    2.146678
     18          1           0        3.722052   -0.652183    2.857481
     19          1           0        3.725322    1.121957    2.726094
     20          1           0        4.686726    0.146232    1.596727
     21          6           0       -3.684359    2.030004    0.642120
     22          1           0       -4.508824    1.770429    1.305880
     23          6           0       -3.679323   -0.343670    2.201819
     24          1           0       -3.725076    0.506417    2.897961
     25          1           0       -3.597363   -1.264426    2.798907
     26          1           0       -4.634239   -0.380409    1.656950
     27          6           0        3.673039    2.243519    0.231120
     28          1           0        4.394447    2.222921    1.046923
     29          6           0        1.226068    0.213468    3.389849
     30          1           0        2.160116    0.360673    3.929548
     31          6           0       -1.157828   -0.133219    3.419445
     32          1           0       -2.080191   -0.274278    3.980574
     33          6           0        1.202023    0.148021    1.987047
     34          6           0        1.397284   -2.829756   -0.879320
     35          1           0        0.516043   -3.039199   -1.488097
     36          6           0        2.533154    0.116371    1.172892
     37          6           0       -1.156234   -0.130896    2.014732
     38          6           0       -3.712636    3.258860   -0.033845
     39          1           0       -4.552643    3.945074    0.110363
     40          6           0        3.581685   -2.195941    0.639204
     41          1           0        4.453384   -1.943203    1.242053
     42          6           0        1.878857    2.302262   -1.836855
     43          1           0        1.140707    2.254705   -2.641777
     44          6           0        0.038722    0.066445    4.111909
     45          6           0        3.798081    3.240264   -0.749072
     46          1           0        4.603681    3.977474   -0.679300
     47          6           0        2.891839    3.259682   -1.816194
     48          1           0        2.960931    3.995542   -2.621719
     49          6           0        2.371553   -3.808424   -0.686504
     50          1           0        2.248488   -4.791937   -1.146378
     51          6           0       -1.627853    2.654351   -1.060209
     52          1           0       -0.817534    2.828042   -1.767375
     53          6           0       -2.656590    3.582515   -0.893872
     54          1           0       -2.630015    4.524318   -1.447951
     55          6           0        3.502213   -3.474475    0.065680
     56          1           0        4.312686   -4.194066    0.215039
     57          6           0       -3.633795   -3.349025   -0.748479
     58          1           0       -4.382014   -4.143232   -0.668693
     59          6           0       -1.868802   -2.217589   -1.911426
     60          1           0       -1.224043   -2.068081   -2.782011
     61          1           0        0.091998    0.272420   -3.605488
     62          1           0        1.061800   -0.951472   -2.464579
     63          1           0        0.047874    0.098664    5.205594
     64          8           0        2.179472   -2.109570   -3.729175
     65          6           0        1.391793   -1.187762   -3.607519
     66          8           0        0.780916   -0.370812   -4.378706
 ---------------------------------------------------------------------
 Rotational constants (GHZ):           0.1230141           0.0988707           0.0931110
 General basis read from cards:  (5D, 7F)
 ======================================================================================================
                                       Pseudopotential Parameters
 ======================================================================================================
  Center     Atomic      Valence      Angular      Power
  Number     Number     Electrons     Momentum     of R      Exponent        Coefficient   SO-Coeffient
 ======================================================================================================
    1         42           14
                                      G and up 
                                                     2        1.0000000        0.00000000    0.00000000
                                      S - G
                                                     2        9.7145940      180.10310800    0.00000000
                                                     2        4.6805000       24.99722800    0.00000000
                                      P - G
                                                     2        8.1421370      123.77275200    0.00000000
                                                     2        4.6259860       19.53022800    0.00000000
                                      D - G
                                                     2        6.6184150       48.37502200    0.00000000
                                                     2        3.2487520        8.89205300    0.00000000
                                      F - G
                                                     2        9.4500000      -24.80517700    0.00000000
                                                     2        4.7200000       -4.15378200    0.00000000
    2          8
                                   No pseudopotential on this center.
    3          7
                                   No pseudopotential on this center.
    4          7
                                   No pseudopotential on this center.
    5          7
                                   No pseudopotential on this center.
    6          7
                                   No pseudopotential on this center.
    7          6
                                   No pseudopotential on this center.
    8          7
                                   No pseudopotential on this center.
    9          6
                                   No pseudopotential on this center.
   10          6
                                   No pseudopotential on this center.
   11          6
                                   No pseudopotential on this center.
   12          6
                                   No pseudopotential on this center.
   13          1
                                   No pseudopotential on this center.
   14          6
                                   No pseudopotential on this center.
   15          1
                                   No pseudopotential on this center.
   16          6
                                   No pseudopotential on this center.
   17          6
                                   No pseudopotential on this center.
   18          1
                                   No pseudopotential on this center.
   19          1
                                   No pseudopotential on this center.
   20          1
                                   No pseudopotential on this center.
   21          6
                                   No pseudopotential on this center.
   22          1
                                   No pseudopotential on this center.
   23          6
                                   No pseudopotential on this center.
   24          1
                                   No pseudopotential on this center.
   25          1
                                   No pseudopotential on this center.
   26          1
                                   No pseudopotential on this center.
   27          6
                                   No pseudopotential on this center.
   28          1
                                   No pseudopotential on this center.
   29          6
                                   No pseudopotential on this center.
   30          1
                                   No pseudopotential on this center.
   31          6
                                   No pseudopotential on this center.
   32          1
                                   No pseudopotential on this center.
   33          6
                                   No pseudopotential on this center.
   34          6
                                   No pseudopotential on this center.
   35          1
                                   No pseudopotential on this center.
   36          6
                                   No pseudopotential on this center.
   37          6
                                   No pseudopotential on this center.
   38          6
                                   No pseudopotential on this center.
   39          1
                                   No pseudopotential on this center.
   40          6
                                   No pseudopotential on this center.
   41          1
                                   No pseudopotential on this center.
   42          6
                                   No pseudopotential on this center.
   43          1
                                   No pseudopotential on this center.
   44          6
                                   No pseudopotential on this center.
   45          6
                                   No pseudopotential on this center.
   46          1
                                   No pseudopotential on this center.
   47          6
                                   No pseudopotential on this center.
   48          1
                                   No pseudopotential on this center.
   49          6
                                   No pseudopotential on this center.
   50          1
                                   No pseudopotential on this center.
   51          6
                                   No pseudopotential on this center.
   52          1
                                   No pseudopotential on this center.
   53          6
                                   No pseudopotential on this center.
   54          1
                                   No pseudopotential on this center.
   55          6
                                   No pseudopotential on this center.
   56          1
                                   No pseudopotential on this center.
   57          6
                                   No pseudopotential on this center.
   58          1
                                   No pseudopotential on this center.
   59          6
                                   No pseudopotential on this center.
   60          1
                                   No pseudopotential on this center.
   61          1
                                   No pseudopotential on this center.
   62          1
                                   No pseudopotential on this center.
   63          1
                                   No pseudopotential on this center.
   64          8
                                   No pseudopotential on this center.
   65          6
                                   No pseudopotential on this center.
   66          8
                                   No pseudopotential on this center.
 ======================================================================================================
   855 basis functions,  1470 primitive gaussians,   896 cartesian basis functions
   140 alpha electrons      138 beta electrons
       nuclear repulsion energy      4917.9814704898 Hartrees.
 NAtoms=   66 NActive=   66 NUniq=   66 SFac= 1.00D+00 NAtFMM=   60 NAOKFM=T Big=T
 Integral buffers will be    131072 words long.
 Raffenetti 2 integral format.
 Two-electron integral symmetry is turned off.
 One-electron integrals computed using PRISM.
   1 Symmetry operations used in ECPInt.
 ECPInt:  NShTT=   40755 NPrTT=  188354 LenC2=   34901 LenP2D=   97183.
 LDataN:  DoStor=T MaxTD1= 6 Len=  172
 NBasis=   855 RedAO= T EigKep=  1.24D-06  NBF=   855
 NBsUse=   846 1.00D-06 EigRej=  9.74D-07 NBFU=   846
 Defaulting to unpruned grid for atomic number  42.
 ExpMin= 1.50D-02 ExpMax= 5.48D+03 ExpMxC= 8.25D+02 IAcc=3 IRadAn=         5 AccDes= 0.00D+00
 Harris functional with IExCor=  404 and IRadAn=       5 diagonalized for initial guess.
 HarFok:  IExCor=  404 AccDes= 0.00D+00 IRadAn=         5 IDoV= 1 UseB2=F ITyADJ=14
 ICtDFT=  3500011 ScaDFX=  1.000000  1.000000  1.000000  1.000000
 Defaulting to unpruned grid for atomic number  42.
 FoFCou: FMM=F IPFlag=           0 FMFlag=      100000 FMFlg1=        2001
         NFxFlg=           0 DoJE=T BraDBF=F KetDBF=T FulRan=T
         wScrn=  0.000000 ICntrl=       500 IOpCl=  0 I1Cent=   200000004 NGrid=           0
         NMat0=    1 NMatS0=      1 NMatT0=    0 NMatD0=    1 NMtDS0=    0 NMtDT0=    0
 Symmetry not used in FoFCou.
 Initial guess <Sx>= 0.0000 <Sy>= 0.0000 <Sz>= 1.0000 <S**2>= 2.0000 S= 1.0000
 Requested convergence on RMS density matrix=1.00D-08 within 128 cycles.
 Requested convergence on MAX density matrix=1.00D-06.
 Requested convergence on             energy=1.00D-06.
 No special actions if energy rises.
 Defaulting to unpruned grid for atomic number  42.
 Defaulting to unpruned grid for atomic number  42.
 Defaulting to unpruned grid for atomic number  42.
 Defaulting to unpruned grid for atomic number  42.
 Defaulting to unpruned grid for atomic number  42.
 Defaulting to unpruned grid for atomic number  42.
 Defaulting to unpruned grid for atomic number  42.
 Defaulting to unpruned grid for atomic number  42.
 Defaulting to unpruned grid for atomic number  42.
 Defaulting to unpruned grid for atomic number  42.
 Defaulting to unpruned grid for atomic number  42.
 Defaulting to unpruned grid for atomic number  42.
 Defaulting to unpruned grid for atomic number  42.
 Defaulting to unpruned grid for atomic number  42.
 Defaulting to unpruned grid for atomic number  42.
 Defaulting to unpruned grid for atomic number  42.
 EnCoef did     4 forward-backward iterations
 EnCoef did   100 forward-backward iterations
 EnCoef did   100 forward-backward iterations
 EnCoef did   100 forward-backward iterations
 Restarting incremental Fock formation.
 SCF Done:  E(UB-P86) =  -1726.84591357     A.U. after   27 cycles
            NFock= 27  Conv=0.92D-08     -V/T= 2.0349
 <Sx>= 0.0000 <Sy>= 0.0000 <Sz>= 1.0000 <S**2>= 2.0141 S= 1.0047
 <L.S>=  0.00000000000    
 Annihilation of the first spin contaminant:
 S**2 before annihilation     2.0141,   after     2.0001
 QCSCF skips out because SCF is already converged.
 DoSCS=F DFT=T ScalE2(SS,OS)=  1.000000  1.000000
 Range of M.O.s used for correlation:     1   846
 NBasis=   855 NAE=   140 NBE=   138 NFC=     0 NFV=     0
 NROrb=    846 NOA=   140 NOB=   138 NVA=   706 NVB=   708

 **** Warning!!: The largest alpha MO coefficient is  0.17567406D+03


 **** Warning!!: The smallest alpha delta epsilon is  0.26568719D-01


 **** Warning!!: The largest beta MO coefficient is  0.18484653D+03


 **** Warning!!: The smallest beta delta epsilon is  0.60661809D-01

   1 Symmetry operations used in ECPInt.
 ECPInt:  NShTT=   40755 NPrTT=  188354 LenC2=   34901 LenP2D=   97183.
 LDataN:  DoStor=T MaxTD1= 7 Len=  274
 Number of processors reduced to   8 by ecpmxn.
 Symmetrizing basis deriv contribution to polar:
 IMax=3 JMax=2 DiffMx= 0.00D+00
 G2DrvN: will do    67 centers at a time, making    1 passes.
 Calling FoFCou, ICntrl=  3507 FMM=T I1Cent=   0 AccDes= 1.00D-12.
 Defaulting to unpruned grid for atomic number  42.
 Defaulting to unpruned grid for atomic number  42.
 Defaulting to unpruned grid for atomic number  42.
 Defaulting to unpruned grid for atomic number  42.
 Defaulting to unpruned grid for atomic number  42.
 Defaulting to unpruned grid for atomic number  42.
 Defaulting to unpruned grid for atomic number  42.
 Defaulting to unpruned grid for atomic number  42.
 Defaulting to unpruned grid for atomic number  42.
 Defaulting to unpruned grid for atomic number  42.
 Defaulting to unpruned grid for atomic number  42.
 Defaulting to unpruned grid for atomic number  42.
 Defaulting to unpruned grid for atomic number  42.
 Defaulting to unpruned grid for atomic number  42.
 Defaulting to unpruned grid for atomic number  42.
 Defaulting to unpruned grid for atomic number  42.
 End of G2Drv F.D. properties file   721 does not exist.
 End of G2Drv F.D. properties file   722 does not exist.
 End of G2Drv F.D. properties file   788 does not exist.
          IDoAtm=11111111111111111111111111111111111111111111111111
          IDoAtm=1111111111111111
          Differentiating once with respect to nuclear coordinates.
 Defaulting to unpruned grid for atomic number  42.
 CalDSu exits because no D1Ps are significant.
 Defaulting to unpruned grid for atomic number  42.
 Defaulting to unpruned grid for atomic number  42.
 Defaulting to unpruned grid for atomic number  42.
 Defaulting to unpruned grid for atomic number  42.
 Defaulting to unpruned grid for atomic number  42.
 Defaulting to unpruned grid for atomic number  42.
 Defaulting to unpruned grid for atomic number  42.
 Defaulting to unpruned grid for atomic number  42.
 Defaulting to unpruned grid for atomic number  42.
 Defaulting to unpruned grid for atomic number  42.
 Defaulting to unpruned grid for atomic number  42.
 Defaulting to unpruned grid for atomic number  42.
 Defaulting to unpruned grid for atomic number  42.
 Defaulting to unpruned grid for atomic number  42.
 Defaulting to unpruned grid for atomic number  42.
 Defaulting to unpruned grid for atomic number  42.
          There are   201 degrees of freedom in the 1st order CPHF.  IDoFFX=6 NUNeed=     0.
    195 vectors produced by pass  0 Test12= 1.97D-13 1.00D-09 XBig12= 1.72D+00 2.65D-01.
 AX will form    72 AO Fock derivatives at one time.
    195 vectors produced by pass  1 Test12= 1.97D-13 1.00D-09 XBig12= 2.38D+00 2.49D-01.
    195 vectors produced by pass  2 Test12= 1.97D-13 1.00D-09 XBig12= 1.22D-02 1.21D-02.
    195 vectors produced by pass  3 Test12= 1.97D-13 1.00D-09 XBig12= 1.12D-04 6.66D-04.
    195 vectors produced by pass  4 Test12= 1.97D-13 1.00D-09 XBig12= 4.80D-07 4.39D-05.
    194 vectors produced by pass  5 Test12= 1.97D-13 1.00D-09 XBig12= 1.17D-09 1.27D-06.
     62 vectors produced by pass  6 Test12= 1.97D-13 1.00D-09 XBig12= 2.65D-12 4.77D-08.
      3 vectors produced by pass  7 Test12= 1.97D-13 1.00D-09 XBig12= 6.97D-15 2.17D-09.
 InvSVY:  IOpt=1 It=  1 EMax= 1.78D-15
 Solved reduced A of dimension  1234 with   201 vectors.
 End of Minotr F.D. properties file   721 does not exist.
 End of Minotr F.D. properties file   722 does not exist.
 End of Minotr F.D. properties file   788 does not exist.

 **********************************************************************

            Population analysis using the SCF Density.

 **********************************************************************

 Alpha  occ. eigenvalues --  -19.01634 -18.99176 -18.98746 -14.30280 -14.30196
 Alpha  occ. eigenvalues --  -14.29742 -14.29710 -14.29528 -10.23469 -10.21202
 Alpha  occ. eigenvalues --  -10.21173 -10.20560 -10.20555 -10.20456 -10.20348
 Alpha  occ. eigenvalues --  -10.19794 -10.19722 -10.18788 -10.18619 -10.18154
 Alpha  occ. eigenvalues --  -10.18008 -10.16390 -10.15872 -10.15859 -10.15622
 Alpha  occ. eigenvalues --  -10.15600 -10.15562 -10.15496 -10.15394 -10.15334
 Alpha  occ. eigenvalues --  -10.15241 -10.15208 -10.14937 -10.14769 -10.14638
 Alpha  occ. eigenvalues --  -10.14588 -10.13359 -10.13353  -2.71721  -1.75878
 Alpha  occ. eigenvalues --   -1.75307  -1.74951  -1.19347  -1.13061  -1.12959
 Alpha  occ. eigenvalues --   -1.11706  -1.11018  -1.10699  -1.10626  -1.04263
 Alpha  occ. eigenvalues --   -1.00591  -0.98659  -0.97027  -0.96065  -0.96041
 Alpha  occ. eigenvalues --   -0.95829  -0.95750  -0.93104  -0.92713  -0.92546
 Alpha  occ. eigenvalues --   -0.90021  -0.88452  -0.85124  -0.83923  -0.80744
 Alpha  occ. eigenvalues --   -0.80592  -0.80305  -0.80069  -0.79970  -0.79897
 Alpha  occ. eigenvalues --   -0.79695  -0.79392  -0.76745  -0.74799  -0.72414
 Alpha  occ. eigenvalues --   -0.71283  -0.70875  -0.70657  -0.70329  -0.69516
 Alpha  occ. eigenvalues --   -0.69346  -0.67643  -0.67036  -0.66880  -0.66607
 Alpha  occ. eigenvalues --   -0.66563  -0.64979  -0.64693  -0.64095  -0.63947
 Alpha  occ. eigenvalues --   -0.63489  -0.63191  -0.62638  -0.62254  -0.61704
 Alpha  occ. eigenvalues --   -0.61388  -0.60925  -0.60776  -0.60254  -0.59255
 Alpha  occ. eigenvalues --   -0.59058  -0.58963  -0.58771  -0.58637  -0.58415
 Alpha  occ. eigenvalues --   -0.58282  -0.58095  -0.57917  -0.57165  -0.56215
 Alpha  occ. eigenvalues --   -0.55812  -0.55748  -0.55389  -0.55197  -0.55056
 Alpha  occ. eigenvalues --   -0.54774  -0.54674  -0.54429  -0.53408  -0.53142
 Alpha  occ. eigenvalues --   -0.52661  -0.51670  -0.50878  -0.50471  -0.50203
 Alpha  occ. eigenvalues --   -0.49802  -0.49050  -0.48846  -0.48630  -0.48421
 Alpha  occ. eigenvalues --   -0.47433  -0.47304  -0.46841  -0.46523  -0.46280
 Alpha  occ. eigenvalues --   -0.46074  -0.45778  -0.42602  -0.41669  -0.36758
 Alpha virt. eigenvalues --   -0.34101  -0.31143  -0.30660  -0.30565  -0.29838
 Alpha virt. eigenvalues --   -0.29244  -0.29094  -0.28689  -0.28137  -0.26988
 Alpha virt. eigenvalues --   -0.26799  -0.25817  -0.22218  -0.21821  -0.19886
 Alpha virt. eigenvalues --   -0.18627  -0.17728  -0.17634  -0.17467  -0.17138
 Alpha virt. eigenvalues --   -0.16834  -0.16345  -0.16310  -0.16037  -0.15878
 Alpha virt. eigenvalues --   -0.15723  -0.15354  -0.14974  -0.14851  -0.14688
 Alpha virt. eigenvalues --   -0.14340  -0.14109  -0.13649  -0.13351  -0.13198
 Alpha virt. eigenvalues --   -0.12889  -0.12755  -0.12382  -0.12188  -0.11771
 Alpha virt. eigenvalues --   -0.11556  -0.11451  -0.11135  -0.10843  -0.10614
 Alpha virt. eigenvalues --   -0.10459  -0.10431  -0.10040  -0.09812  -0.09690
 Alpha virt. eigenvalues --   -0.09564  -0.09514  -0.09240  -0.09098  -0.08915
 Alpha virt. eigenvalues --   -0.08542  -0.08421  -0.07995  -0.07884  -0.07645
 Alpha virt. eigenvalues --   -0.07180  -0.06964  -0.06519  -0.06407  -0.06052
 Alpha virt. eigenvalues --   -0.05821  -0.05626  -0.05487  -0.05400  -0.05345
 Alpha virt. eigenvalues --   -0.05137  -0.04904  -0.04696  -0.04290  -0.04061
 Alpha virt. eigenvalues --   -0.03924  -0.03869  -0.03731  -0.03618  -0.03338
 Alpha virt. eigenvalues --   -0.03176  -0.02985  -0.02931  -0.02646  -0.02334
 Alpha virt. eigenvalues --   -0.02247  -0.02116  -0.01951  -0.01777  -0.01661
 Alpha virt. eigenvalues --   -0.01525  -0.01442  -0.01239  -0.01124  -0.01031
 Alpha virt. eigenvalues --   -0.00796  -0.00753  -0.00603  -0.00352  -0.00243
 Alpha virt. eigenvalues --    0.00010   0.00141   0.00552   0.00701   0.00960
 Alpha virt. eigenvalues --    0.01059   0.01167   0.01396   0.01474   0.01520
 Alpha virt. eigenvalues --    0.01741   0.02114   0.02250   0.02364   0.02517
 Alpha virt. eigenvalues --    0.02817   0.02991   0.03178   0.03474   0.03491
 Alpha virt. eigenvalues --    0.03628   0.03757   0.04073   0.04285   0.04403
 Alpha virt. eigenvalues --    0.04681   0.04722   0.04946   0.05110   0.05146
 Alpha virt. eigenvalues --    0.05178   0.05670   0.05763   0.05829   0.06142
 Alpha virt. eigenvalues --    0.06313   0.06438   0.06540   0.06781   0.06965
 Alpha virt. eigenvalues --    0.06997   0.07278   0.07396   0.07526   0.07729
 Alpha virt. eigenvalues --    0.07823   0.08215   0.08334   0.08441   0.08579
 Alpha virt. eigenvalues --    0.08830   0.08979   0.09094   0.09154   0.09272
 Alpha virt. eigenvalues --    0.09478   0.09612   0.09734   0.10162   0.10264
 Alpha virt. eigenvalues --    0.10383   0.10582   0.10802   0.11062   0.11206
 Alpha virt. eigenvalues --    0.11477   0.11803   0.12041   0.12352   0.12402
 Alpha virt. eigenvalues --    0.12530   0.12792   0.13041   0.13318   0.13889
 Alpha virt. eigenvalues --    0.14212   0.14351   0.14505   0.14712   0.14953
 Alpha virt. eigenvalues --    0.15016   0.15450   0.15863   0.16200   0.16294
 Alpha virt. eigenvalues --    0.16388   0.17054   0.17139   0.17320   0.17757
 Alpha virt. eigenvalues --    0.17966   0.18146   0.18222   0.18584   0.18787
 Alpha virt. eigenvalues --    0.18951   0.19428   0.20036   0.20296   0.20528
 Alpha virt. eigenvalues --    0.20642   0.21181   0.21342   0.21713   0.21831
 Alpha virt. eigenvalues --    0.22076   0.22125   0.22722   0.22916   0.23154
 Alpha virt. eigenvalues --    0.23505   0.24093   0.24313   0.24418   0.24922
 Alpha virt. eigenvalues --    0.25088   0.25450   0.25860   0.26315   0.26859
 Alpha virt. eigenvalues --    0.27191   0.27478   0.27789   0.28046   0.28336
 Alpha virt. eigenvalues --    0.28705   0.28865   0.29048   0.30326   0.30769
 Alpha virt. eigenvalues --    0.30867   0.30945   0.31826   0.32041   0.32155
 Alpha virt. eigenvalues --    0.33125   0.33355   0.33670   0.34290   0.35011
 Alpha virt. eigenvalues --    0.36019   0.38898   0.39783   0.40655   0.41322
 Alpha virt. eigenvalues --    0.42456   0.43506   0.43768   0.44439   0.44920
 Alpha virt. eigenvalues --    0.45921   0.46875   0.47135   0.47517   0.47679
 Alpha virt. eigenvalues --    0.48035   0.48241   0.48392   0.48908   0.49154
 Alpha virt. eigenvalues --    0.49408   0.50099   0.50254   0.50415   0.50696
 Alpha virt. eigenvalues --    0.51019   0.51147   0.51693   0.52087   0.52561
 Alpha virt. eigenvalues --    0.52776   0.52914   0.53135   0.53555   0.54330
 Alpha virt. eigenvalues --    0.54711   0.55076   0.55350   0.55745   0.56247
 Alpha virt. eigenvalues --    0.56353   0.56580   0.57266   0.57968   0.58439
 Alpha virt. eigenvalues --    0.59185   0.59710   0.59881   0.60313   0.61037
 Alpha virt. eigenvalues --    0.61096   0.61685   0.61948   0.62519   0.62547
 Alpha virt. eigenvalues --    0.62883   0.63868   0.64272   0.64611   0.64761
 Alpha virt. eigenvalues --    0.65508   0.65591   0.65781   0.66191   0.66609
 Alpha virt. eigenvalues --    0.67144   0.67820   0.67912   0.68448   0.68617
 Alpha virt. eigenvalues --    0.68905   0.69031   0.69612   0.69788   0.70490
 Alpha virt. eigenvalues --    0.70714   0.70822   0.71268   0.71359   0.71767
 Alpha virt. eigenvalues --    0.72350   0.73294   0.73484   0.74547   0.75171
 Alpha virt. eigenvalues --    0.75739   0.76215   0.76557   0.77100   0.77202
 Alpha virt. eigenvalues --    0.78343   0.78700   0.79545   0.79759   0.80580
 Alpha virt. eigenvalues --    0.81380   0.81944   0.82137   0.82881   0.83556
 Alpha virt. eigenvalues --    0.84232   0.84479   0.85270   0.86038   0.86772
 Alpha virt. eigenvalues --    0.87038   0.87591   0.87764   0.87934   0.88619
 Alpha virt. eigenvalues --    0.89442   0.89917   0.90477   0.91593   0.92469
 Alpha virt. eigenvalues --    0.92914   0.93276   0.93579   0.94474   0.94778
 Alpha virt. eigenvalues --    0.95393   0.95898   0.96280   0.96559   0.96847
 Alpha virt. eigenvalues --    0.97279   0.97773   0.98608   0.99260   0.99553
 Alpha virt. eigenvalues --    0.99822   1.00342   1.00371   1.01274   1.01468
 Alpha virt. eigenvalues --    1.02274   1.02817   1.03477   1.04286   1.04769
 Alpha virt. eigenvalues --    1.05337   1.05856   1.06496   1.06711   1.06971
 Alpha virt. eigenvalues --    1.07702   1.07791   1.08579   1.09680   1.09873
 Alpha virt. eigenvalues --    1.10145   1.10519   1.10926   1.11146   1.11581
 Alpha virt. eigenvalues --    1.11982   1.12195   1.12310   1.12508   1.13201
 Alpha virt. eigenvalues --    1.13488   1.14395   1.14475   1.14506   1.14985
 Alpha virt. eigenvalues --    1.15426   1.15770   1.16418   1.17040   1.17425
 Alpha virt. eigenvalues --    1.17809   1.18561   1.19247   1.19358   1.20036
 Alpha virt. eigenvalues --    1.20331   1.21329   1.22303   1.22340   1.22767
 Alpha virt. eigenvalues --    1.23962   1.24213   1.25026   1.25616   1.26546
 Alpha virt. eigenvalues --    1.26684   1.27899   1.28314   1.28690   1.30101
 Alpha virt. eigenvalues --    1.30827   1.31251   1.32163   1.33033   1.33812
 Alpha virt. eigenvalues --    1.34498   1.35949   1.36331   1.36614   1.38301
 Alpha virt. eigenvalues --    1.38501   1.39519   1.40577   1.40702   1.42473
 Alpha virt. eigenvalues --    1.43704   1.43964   1.45075   1.46882   1.47399
 Alpha virt. eigenvalues --    1.47795   1.48615   1.48861   1.49349   1.50634
 Alpha virt. eigenvalues --    1.50989   1.51165   1.51978   1.53462   1.53509
 Alpha virt. eigenvalues --    1.53965   1.54775   1.55129   1.55789   1.56228
 Alpha virt. eigenvalues --    1.56793   1.57353   1.57473   1.57935   1.58548
 Alpha virt. eigenvalues --    1.58840   1.59869   1.60368   1.60878   1.61440
 Alpha virt. eigenvalues --    1.61490   1.61917   1.62092   1.63228   1.63559
 Alpha virt. eigenvalues --    1.63827   1.64436   1.65012   1.65366   1.65715
 Alpha virt. eigenvalues --    1.66194   1.66422   1.66958   1.67676   1.68603
 Alpha virt. eigenvalues --    1.68838   1.69257   1.69655   1.69701   1.70177
 Alpha virt. eigenvalues --    1.70769   1.70837   1.71152   1.71435   1.71762
 Alpha virt. eigenvalues --    1.72142   1.72487   1.72667   1.73113   1.73725
 Alpha virt. eigenvalues --    1.74001   1.74608   1.75092   1.75718   1.76528
 Alpha virt. eigenvalues --    1.76630   1.76802   1.77069   1.77529   1.78241
 Alpha virt. eigenvalues --    1.79174   1.79878   1.80421   1.80997   1.81286
 Alpha virt. eigenvalues --    1.82549   1.83656   1.84681   1.85309   1.86031
 Alpha virt. eigenvalues --    1.86372   1.86883   1.88722   1.89126   1.90247
 Alpha virt. eigenvalues --    1.90609   1.90977   1.92543   1.93350   1.93966
 Alpha virt. eigenvalues --    1.94486   1.94683   1.95099   1.95673   1.96350
 Alpha virt. eigenvalues --    1.96733   1.97754   1.97961   1.98430   1.99434
 Alpha virt. eigenvalues --    2.00003   2.00154   2.00405   2.00691   2.01223
 Alpha virt. eigenvalues --    2.01576   2.02025   2.02051   2.03976   2.04903
 Alpha virt. eigenvalues --    2.05435   2.06294   2.07270   2.07725   2.08080
 Alpha virt. eigenvalues --    2.08335   2.09086   2.09686   2.09882   2.10295
 Alpha virt. eigenvalues --    2.10520   2.10913   2.11031   2.11688   2.11999
 Alpha virt. eigenvalues --    2.12481   2.14005   2.15326   2.16057   2.17555
 Alpha virt. eigenvalues --    2.17941   2.18292   2.18840   2.19493   2.20442
 Alpha virt. eigenvalues --    2.21203   2.21525   2.21844   2.22158   2.22840
 Alpha virt. eigenvalues --    2.23381   2.23985   2.24372   2.25026   2.25139
 Alpha virt. eigenvalues --    2.25554   2.26170   2.26612   2.26882   2.27795
 Alpha virt. eigenvalues --    2.28521   2.28854   2.29154   2.29747   2.30402
 Alpha virt. eigenvalues --    2.31255   2.31578   2.32175   2.32866   2.33632
 Alpha virt. eigenvalues --    2.33869   2.33991   2.34689   2.35836   2.36147
 Alpha virt. eigenvalues --    2.37238   2.38070   2.38290   2.38765   2.40479
 Alpha virt. eigenvalues --    2.40771   2.40965   2.41412   2.41817   2.43134
 Alpha virt. eigenvalues --    2.43725   2.44196   2.44487   2.45158   2.45848
 Alpha virt. eigenvalues --    2.46870   2.47267   2.48714   2.48929   2.49958
 Alpha virt. eigenvalues --    2.50710   2.50958   2.52745   2.53447   2.53939
 Alpha virt. eigenvalues --    2.54465   2.55120   2.55448   2.56011   2.56188
 Alpha virt. eigenvalues --    2.56792   2.57727   2.58716   2.60716   2.61908
 Alpha virt. eigenvalues --    2.62876   2.65891   2.66255   2.66777   2.67861
 Alpha virt. eigenvalues --    2.67998   2.69534   2.71416   2.71746   2.73817
 Alpha virt. eigenvalues --    2.73975   2.76668   2.76907   2.77439   2.78429
 Alpha virt. eigenvalues --    2.79541   2.82252   2.82708   2.91479   2.92144
 Alpha virt. eigenvalues --    2.93588   2.94393   2.95707   2.96762   2.97000
 Alpha virt. eigenvalues --    2.97326   2.97802   2.98121   2.98636   2.99118
 Alpha virt. eigenvalues --    2.99612   2.99823   2.99965   3.00587   3.01042
 Alpha virt. eigenvalues --    3.01625   3.01858   3.05862   3.06381   3.06777
 Alpha virt. eigenvalues --    3.06967   3.12757   3.13615   3.20921   3.21379
 Alpha virt. eigenvalues --    3.21660   3.21921   3.22301   3.22410   3.22572
 Alpha virt. eigenvalues --    3.23390   3.49342   3.54449   3.54779   3.55190
 Alpha virt. eigenvalues --    3.55615   3.57164  30.77330  30.84136  30.87250
 Alpha virt. eigenvalues --   40.05421
  Beta  occ. eigenvalues --  -19.01682 -18.99222 -18.98301 -14.30336 -14.30242
  Beta  occ. eigenvalues --  -14.29788 -14.29770 -14.29584 -10.23462 -10.21171
  Beta  occ. eigenvalues --  -10.21142 -10.20528 -10.20499 -10.20408 -10.20328
  Beta  occ. eigenvalues --  -10.19799 -10.19727 -10.18764 -10.18539 -10.18130
  Beta  occ. eigenvalues --  -10.17944 -10.16366 -10.15880 -10.15866 -10.15554
  Beta  occ. eigenvalues --  -10.15545 -10.15544 -10.15476 -10.15414 -10.15340
  Beta  occ. eigenvalues --  -10.15257 -10.15213 -10.14955 -10.14774 -10.14659
  Beta  occ. eigenvalues --  -10.14595 -10.13359 -10.13353  -2.68105  -1.72311
  Beta  occ. eigenvalues --   -1.72141  -1.69877  -1.19418  -1.13067  -1.13009
  Beta  occ. eigenvalues --   -1.11697  -1.11007  -1.10686  -1.10614  -1.03330
  Beta  occ. eigenvalues --   -1.00557  -0.98625  -0.97006  -0.96034  -0.96005
  Beta  occ. eigenvalues --   -0.95798  -0.95726  -0.93050  -0.92671  -0.92498
  Beta  occ. eigenvalues --   -0.89986  -0.88425  -0.85112  -0.83907  -0.80698
  Beta  occ. eigenvalues --   -0.80557  -0.80289  -0.80050  -0.79930  -0.79825
  Beta  occ. eigenvalues --   -0.79646  -0.79345  -0.76671  -0.74766  -0.72447
  Beta  occ. eigenvalues --   -0.71226  -0.70835  -0.70599  -0.70286  -0.69426
  Beta  occ. eigenvalues --   -0.69284  -0.67619  -0.67007  -0.66858  -0.66580
  Beta  occ. eigenvalues --   -0.66535  -0.64932  -0.64675  -0.64069  -0.63919
  Beta  occ. eigenvalues --   -0.63421  -0.63105  -0.62599  -0.62215  -0.61539
  Beta  occ. eigenvalues --   -0.61186  -0.60693  -0.60650  -0.60191  -0.59168
  Beta  occ. eigenvalues --   -0.58987  -0.58914  -0.58763  -0.58595  -0.58382
  Beta  occ. eigenvalues --   -0.58254  -0.58083  -0.57902  -0.57036  -0.56079
  Beta  occ. eigenvalues --   -0.55777  -0.55733  -0.55355  -0.55161  -0.54974
  Beta  occ. eigenvalues --   -0.54753  -0.54656  -0.54398  -0.53239  -0.52807
  Beta  occ. eigenvalues --   -0.52330  -0.51311  -0.50381  -0.50058  -0.49762
  Beta  occ. eigenvalues --   -0.49686  -0.48904  -0.48679  -0.48185  -0.47415
  Beta  occ. eigenvalues --   -0.47350  -0.47112  -0.46716  -0.46304  -0.46155
  Beta  occ. eigenvalues --   -0.45844  -0.45694  -0.42464
  Beta virt. eigenvalues --   -0.36398  -0.33293  -0.32608  -0.30392  -0.30094
  Beta virt. eigenvalues --   -0.29871  -0.29184  -0.29099  -0.28713  -0.28463
  Beta virt. eigenvalues --   -0.28032  -0.26806  -0.25842  -0.25179  -0.21882
  Beta virt. eigenvalues --   -0.20441  -0.19838  -0.18617  -0.17676  -0.17606
  Beta virt. eigenvalues --   -0.17391  -0.17083  -0.16781  -0.16313  -0.16250
  Beta virt. eigenvalues --   -0.15924  -0.15826  -0.15662  -0.15263  -0.14915
  Beta virt. eigenvalues --   -0.14805  -0.14650  -0.14274  -0.14082  -0.13592
  Beta virt. eigenvalues --   -0.13296  -0.12918  -0.12827  -0.12692  -0.12341
  Beta virt. eigenvalues --   -0.11979  -0.11745  -0.11509  -0.11404  -0.11059
  Beta virt. eigenvalues --   -0.10769  -0.10537  -0.10376  -0.10292  -0.09982
  Beta virt. eigenvalues --   -0.09762  -0.09554  -0.09525  -0.09444  -0.09189
  Beta virt. eigenvalues --   -0.09057  -0.08868  -0.08485  -0.08355  -0.07897
  Beta virt. eigenvalues --   -0.07773  -0.07617  -0.07125  -0.06889  -0.06474
  Beta virt. eigenvalues --   -0.06334  -0.05992  -0.05781  -0.05589  -0.05428
  Beta virt. eigenvalues --   -0.05314  -0.05291  -0.05088  -0.04831  -0.04655
  Beta virt. eigenvalues --   -0.04242  -0.04008  -0.03852  -0.03812  -0.03687
  Beta virt. eigenvalues --   -0.03555  -0.03308  -0.03096  -0.02951  -0.02838
  Beta virt. eigenvalues --   -0.02546  -0.02280  -0.02216  -0.02097  -0.01919
  Beta virt. eigenvalues --   -0.01745  -0.01622  -0.01466  -0.01405  -0.01202
  Beta virt. eigenvalues --   -0.01089  -0.00990  -0.00746  -0.00701  -0.00573
  Beta virt. eigenvalues --   -0.00294  -0.00203   0.00102   0.00182   0.00584
  Beta virt. eigenvalues --    0.00779   0.01025   0.01117   0.01248   0.01445
  Beta virt. eigenvalues --    0.01552   0.01592   0.01922   0.02211   0.02293
  Beta virt. eigenvalues --    0.02407   0.02605   0.02886   0.03021   0.03201
  Beta virt. eigenvalues --    0.03514   0.03537   0.03714   0.03895   0.04170
  Beta virt. eigenvalues --    0.04380   0.04476   0.04713   0.04771   0.05036
  Beta virt. eigenvalues --    0.05176   0.05216   0.05263   0.05747   0.05812
  Beta virt. eigenvalues --    0.05877   0.06178   0.06421   0.06498   0.06569
  Beta virt. eigenvalues --    0.06863   0.07020   0.07102   0.07359   0.07518
  Beta virt. eigenvalues --    0.07646   0.07819   0.07931   0.08265   0.08422
  Beta virt. eigenvalues --    0.08504   0.08632   0.08851   0.09047   0.09124
  Beta virt. eigenvalues --    0.09212   0.09356   0.09533   0.09716   0.09922
  Beta virt. eigenvalues --    0.10263   0.10374   0.10417   0.10642   0.10867
  Beta virt. eigenvalues --    0.11093   0.11260   0.11580   0.11903   0.12122
  Beta virt. eigenvalues --    0.12406   0.12484   0.12645   0.12854   0.13093
  Beta virt. eigenvalues --    0.13389   0.14087   0.14266   0.14407   0.14538
  Beta virt. eigenvalues --    0.14776   0.14994   0.15184   0.15486   0.15953
  Beta virt. eigenvalues --    0.16281   0.16410   0.16473   0.17113   0.17264
  Beta virt. eigenvalues --    0.17374   0.17793   0.18034   0.18220   0.18340
  Beta virt. eigenvalues --    0.18613   0.18849   0.19166   0.19620   0.20069
  Beta virt. eigenvalues --    0.20504   0.20589   0.20769   0.21273   0.21432
  Beta virt. eigenvalues --    0.21812   0.21901   0.22207   0.22253   0.22899
  Beta virt. eigenvalues --    0.23001   0.23229   0.23598   0.24215   0.24508
  Beta virt. eigenvalues --    0.24663   0.25030   0.25231   0.25544   0.25992
  Beta virt. eigenvalues --    0.26415   0.27022   0.27308   0.27573   0.27878
  Beta virt. eigenvalues --    0.28177   0.28444   0.28825   0.29021   0.29209
  Beta virt. eigenvalues --    0.30414   0.30889   0.30930   0.31041   0.31922
  Beta virt. eigenvalues --    0.32191   0.32263   0.33223   0.33447   0.33860
  Beta virt. eigenvalues --    0.34529   0.35161   0.36201   0.39393   0.40136
  Beta virt. eigenvalues --    0.41464   0.41999   0.42603   0.43602   0.43912
  Beta virt. eigenvalues --    0.44719   0.45131   0.46149   0.46967   0.47230
  Beta virt. eigenvalues --    0.47623   0.47764   0.48102   0.48349   0.48476
  Beta virt. eigenvalues --    0.49000   0.49259   0.49521   0.50161   0.50326
  Beta virt. eigenvalues --    0.50497   0.50767   0.51115   0.51222   0.51805
  Beta virt. eigenvalues --    0.52180   0.52682   0.52895   0.53041   0.53286
  Beta virt. eigenvalues --    0.53647   0.54383   0.54773   0.55154   0.55449
  Beta virt. eigenvalues --    0.55847   0.56360   0.56459   0.56697   0.57364
  Beta virt. eigenvalues --    0.58055   0.58527   0.59298   0.59863   0.59949
  Beta virt. eigenvalues --    0.60395   0.61120   0.61181   0.61755   0.62083
  Beta virt. eigenvalues --    0.62619   0.62876   0.63023   0.64017   0.64405
  Beta virt. eigenvalues --    0.64744   0.64991   0.65583   0.65668   0.65941
  Beta virt. eigenvalues --    0.66347   0.66754   0.67284   0.67948   0.68044
  Beta virt. eigenvalues --    0.68505   0.68696   0.69101   0.69139   0.69703
  Beta virt. eigenvalues --    0.69903   0.70558   0.70787   0.70893   0.71393
  Beta virt. eigenvalues --    0.71589   0.71866   0.72494   0.73438   0.73668
  Beta virt. eigenvalues --    0.74750   0.75271   0.75825   0.76322   0.76629
  Beta virt. eigenvalues --    0.77221   0.77319   0.78464   0.78811   0.79661
  Beta virt. eigenvalues --    0.79910   0.80731   0.81516   0.82038   0.82215
  Beta virt. eigenvalues --    0.82976   0.83655   0.84339   0.84591   0.85357
  Beta virt. eigenvalues --    0.86095   0.86865   0.87134   0.87632   0.87802
  Beta virt. eigenvalues --    0.87970   0.88692   0.89576   0.90026   0.90606
  Beta virt. eigenvalues --    0.91742   0.92594   0.92959   0.93397   0.93667
  Beta virt. eigenvalues --    0.94582   0.94896   0.95445   0.95991   0.96403
  Beta virt. eigenvalues --    0.96641   0.96900   0.97370   0.97835   0.98667
  Beta virt. eigenvalues --    0.99352   0.99641   0.99899   1.00394   1.00453
  Beta virt. eigenvalues --    1.01328   1.01544   1.02392   1.02951   1.03570
  Beta virt. eigenvalues --    1.04454   1.04834   1.05403   1.05915   1.06563
  Beta virt. eigenvalues --    1.06772   1.07065   1.07785   1.07871   1.08656
  Beta virt. eigenvalues --    1.09748   1.09957   1.10216   1.10587   1.11031
  Beta virt. eigenvalues --    1.11205   1.11647   1.12028   1.12287   1.12385
  Beta virt. eigenvalues --    1.12577   1.13286   1.13549   1.14460   1.14547
  Beta virt. eigenvalues --    1.14694   1.15098   1.15462   1.15858   1.16501
  Beta virt. eigenvalues --    1.17129   1.17515   1.17907   1.18689   1.19311
  Beta virt. eigenvalues --    1.19444   1.20097   1.20381   1.21426   1.22369
  Beta virt. eigenvalues --    1.22434   1.22895   1.24157   1.24318   1.25213
  Beta virt. eigenvalues --    1.25737   1.26692   1.26936   1.28107   1.28597
  Beta virt. eigenvalues --    1.28808   1.30184   1.31081   1.31421   1.32291
  Beta virt. eigenvalues --    1.33319   1.34038   1.34672   1.36141   1.36528
  Beta virt. eigenvalues --    1.36852   1.38432   1.38601   1.39658   1.40641
  Beta virt. eigenvalues --    1.40855   1.42643   1.43855   1.44082   1.45201
  Beta virt. eigenvalues --    1.46975   1.47517   1.47865   1.48760   1.48938
  Beta virt. eigenvalues --    1.49442   1.50682   1.51047   1.51283   1.52029
  Beta virt. eigenvalues --    1.53536   1.53619   1.54004   1.54903   1.55297
  Beta virt. eigenvalues --    1.55865   1.56371   1.56873   1.57457   1.57561
  Beta virt. eigenvalues --    1.57951   1.58704   1.58897   1.59996   1.60533
  Beta virt. eigenvalues --    1.60986   1.61510   1.61659   1.62066   1.62153
  Beta virt. eigenvalues --    1.63320   1.63724   1.64122   1.64586   1.65310
  Beta virt. eigenvalues --    1.65496   1.65819   1.66423   1.66524   1.67031
  Beta virt. eigenvalues --    1.67775   1.68670   1.68906   1.69334   1.69721
  Beta virt. eigenvalues --    1.69806   1.70263   1.70829   1.70946   1.71290
  Beta virt. eigenvalues --    1.71509   1.71866   1.72263   1.72552   1.72796
  Beta virt. eigenvalues --    1.73261   1.73882   1.74051   1.74754   1.75194
  Beta virt. eigenvalues --    1.75827   1.76624   1.76646   1.76892   1.77119
  Beta virt. eigenvalues --    1.77689   1.78395   1.79236   1.80045   1.80533
  Beta virt. eigenvalues --    1.81083   1.81425   1.82653   1.83867   1.84729
  Beta virt. eigenvalues --    1.85387   1.86074   1.86622   1.87204   1.88790
  Beta virt. eigenvalues --    1.89230   1.90308   1.90743   1.91030   1.92634
  Beta virt. eigenvalues --    1.93417   1.94042   1.94558   1.94765   1.95182
  Beta virt. eigenvalues --    1.95812   1.96512   1.96810   1.97814   1.98028
  Beta virt. eigenvalues --    1.98623   1.99521   2.00121   2.00226   2.00467
  Beta virt. eigenvalues --    2.00774   2.01313   2.01641   2.02099   2.02140
  Beta virt. eigenvalues --    2.04081   2.04959   2.05493   2.06330   2.07381
  Beta virt. eigenvalues --    2.07866   2.08167   2.08427   2.09189   2.09757
  Beta virt. eigenvalues --    2.09956   2.10357   2.10672   2.10969   2.11152
  Beta virt. eigenvalues --    2.11846   2.12055   2.12530   2.14425   2.15519
  Beta virt. eigenvalues --    2.16203   2.17625   2.18029   2.18338   2.18879
  Beta virt. eigenvalues --    2.19531   2.20476   2.21267   2.21581   2.21917
  Beta virt. eigenvalues --    2.22215   2.22883   2.23444   2.24071   2.24396
  Beta virt. eigenvalues --    2.25087   2.25199   2.25583   2.26225   2.26689
  Beta virt. eigenvalues --    2.26935   2.27867   2.28583   2.28900   2.29181
  Beta virt. eigenvalues --    2.29775   2.30435   2.31312   2.31688   2.32267
  Beta virt. eigenvalues --    2.32921   2.33689   2.33932   2.34072   2.34722
  Beta virt. eigenvalues --    2.35921   2.36213   2.37462   2.38191   2.38389
  Beta virt. eigenvalues --    2.38834   2.40601   2.40844   2.41126   2.41463
  Beta virt. eigenvalues --    2.41947   2.43187   2.43791   2.44306   2.44779
  Beta virt. eigenvalues --    2.45230   2.45912   2.46922   2.47384   2.48805
  Beta virt. eigenvalues --    2.49105   2.49988   2.50787   2.51019   2.52947
  Beta virt. eigenvalues --    2.53670   2.54031   2.54502   2.55158   2.55477
  Beta virt. eigenvalues --    2.56045   2.56245   2.56856   2.57764   2.58798
  Beta virt. eigenvalues --    2.60770   2.62056   2.62884   2.66020   2.66321
  Beta virt. eigenvalues --    2.66934   2.67941   2.68050   2.69597   2.71441
  Beta virt. eigenvalues --    2.71786   2.73848   2.74001   2.76702   2.77110
  Beta virt. eigenvalues --    2.77506   2.78499   2.79639   2.82298   2.82749
  Beta virt. eigenvalues --    2.91554   2.92180   2.93616   2.94434   2.95728
  Beta virt. eigenvalues --    2.96790   2.97030   2.97361   2.97826   2.98142
  Beta virt. eigenvalues --    2.98646   2.99141   2.99628   2.99836   2.99987
  Beta virt. eigenvalues --    3.00597   3.01059   3.01635   3.01857   3.05881
  Beta virt. eigenvalues --    3.06401   3.06790   3.06982   3.12908   3.13618
  Beta virt. eigenvalues --    3.20943   3.21393   3.21664   3.21923   3.22308
  Beta virt. eigenvalues --    3.22422   3.22577   3.23411   3.49352   3.54482
  Beta virt. eigenvalues --    3.54799   3.55201   3.55635   3.57251  30.79082
  Beta virt. eigenvalues --   30.86061  30.89474  40.06691
          Condensed to atoms (all electrons):
          Atomic-Atomic Spin Densities.
 Mulliken charges and spin densities:
               1          2
     1  Mo   1.446317   1.879037
     2  O   -0.897678   0.191981
     3  N    0.269517  -0.099234
     4  N    0.223437  -0.081900
     5  N    0.056983  -0.075539
     6  N    0.281045  -0.059715
     7  C    0.363080   0.071750
     8  N    0.020836  -0.082823
     9  C   -1.327978  -0.013831
    10  C   -0.086310  -0.006687
    11  C    0.117664  -0.004950
    12  C   -0.272790  -0.007368
    13  H    0.198439   0.001181
    14  C   -0.020909  -0.016095
    15  H    0.170679   0.000568
    16  C    0.039882   0.055026
    17  C    0.060322   0.009339
    18  H    0.206870  -0.000034
    19  H    0.198429  -0.000043
    20  H    0.206221  -0.000013
    21  C    0.131851  -0.010180
    22  H    0.170999  -0.000022
    23  C   -0.015836   0.008506
    24  H    0.202226  -0.000049
    25  H    0.199630   0.000005
    26  H    0.209286   0.000007
    27  C   -0.188719  -0.007211
    28  H    0.170021   0.000289
    29  C    0.130202  -0.005513
    30  H    0.173261   0.000228
    31  C    0.025459  -0.005986
    32  H    0.174415   0.000330
    33  C    0.260171  -0.001030
    34  C    0.193902   0.049206
    35  H    0.170840  -0.001903
    36  C   -1.244405  -0.007097
    37  C    0.367313   0.003172
    38  C   -0.508452   0.017183
    39  H    0.199191  -0.000775
    40  C    0.197009  -0.003283
    41  H    0.170354   0.000195
    42  C    0.208484   0.041876
    43  H    0.202208  -0.001122
    44  C   -0.699053   0.021773
    45  C   -0.547415   0.048543
    46  H    0.199506  -0.002131
    47  C   -0.180935  -0.008969
    48  H    0.196739   0.001544
    49  C   -0.432269  -0.005839
    50  H    0.194927   0.000144
    51  C    0.205935   0.024830
    52  H    0.173568  -0.001383
    53  C   -0.454420   0.010363
    54  H    0.194846   0.000223
    55  C   -0.547357   0.020621
    56  H    0.200365  -0.000575
    57  C   -0.430765   0.062625
    58  H    0.199944  -0.002645
    59  C    0.342188   0.062772
    60  H    0.196432  -0.004399
    61  H    0.498910  -0.000938
    62  H   -0.131925  -0.029513
    63  H    0.198402  -0.000721
    64  O   -0.223428  -0.019489
    65  C    0.243989   0.002599
    66  O   -0.251652  -0.016907
 Sum of Mulliken charges =   2.00000   2.00000
 Mulliken charges and spin densities with hydrogens summed into heavy atoms:
               1          2
     1  Mo   1.446317   1.879037
     2  O   -0.398769   0.191044
     3  N    0.269517  -0.099234
     4  N    0.223437  -0.081900
     5  N    0.056983  -0.075539
     6  N    0.281045  -0.059715
     7  C    0.363080   0.071750
     8  N    0.020836  -0.082823
     9  C   -1.327978  -0.013831
    10  C   -0.086310  -0.006687
    11  C    0.117664  -0.004950
    12  C   -0.074351  -0.006187
    14  C    0.149770  -0.015527
    16  C    0.039882   0.055026
    17  C    0.671842   0.009248
    21  C    0.302850  -0.010202
    23  C    0.595307   0.008469
    27  C   -0.018697  -0.006922
    29  C    0.303463  -0.005285
    31  C    0.199875  -0.005656
    33  C    0.260171  -0.001030
    34  C    0.364742   0.047304
    36  C   -1.244405  -0.007097
    37  C    0.367313   0.003172
    38  C   -0.309261   0.016407
    40  C    0.367363  -0.003088
    42  C    0.410692   0.040754
    44  C   -0.500650   0.021051
    45  C   -0.347909   0.046412
    47  C    0.015804  -0.007425
    49  C   -0.237342  -0.005695
    51  C    0.379503   0.023447
    53  C   -0.259573   0.010586
    55  C   -0.346993   0.020046
    57  C   -0.230821   0.059979
    59  C    0.538620   0.058373
    64  O   -0.223428  -0.019489
    65  C    0.112065  -0.026914
    66  O   -0.251652  -0.016907
 APT charges:
               1
     1  Mo   0.121075
     2  O   -0.236528
     3  N    0.111948
     4  N    0.077156
     5  N    0.003204
     6  N    0.115122
     7  C   -1.106112
     8  N   -0.308454
     9  C   -0.214648
    10  C   -1.202602
    11  C   -0.747561
    12  C   -0.347072
    13  H    1.042085
    14  C   -0.301608
    15  H    0.798543
    16  C   -1.697880
    17  C   -1.960445
    18  H    0.537662
    19  H    0.542282
    20  H    0.677560
    21  C   -0.143497
    22  H    0.827657
    23  C   -2.003257
    24  H    0.547605
    25  H    0.536020
    26  H    0.672377
    27  C   -0.281802
    28  H    0.806327
    29  C   -0.243838
    30  H    0.834761
    31  C   -0.502338
    32  H    0.836153
    33  C   -0.687035
    34  C   -1.014068
    35  H    0.378195
    36  C   -0.167640
    37  C   -0.488222
    38  C   -0.183459
    39  H    1.232426
    40  C   -0.199092
    41  H    0.829229
    42  C   -0.808025
    43  H    0.376598
    44  C   -0.140061
    45  C   -0.311178
    46  H    1.243584
    47  C   -0.283873
    48  H    1.038267
    49  C   -0.512910
    50  H    0.994237
    51  C   -0.932438
    52  H    0.337877
    53  C   -0.352537
    54  H    0.993060
    55  C   -0.184291
    56  H    1.235500
    57  C   -0.344973
    58  H    1.230751
    59  C   -0.666465
    60  H    0.410208
    61  H    0.466172
    62  H   -0.085398
    63  H    1.094273
    64  O    0.343379
    65  C   -0.532448
    66  O   -0.099536
 Sum of APT charges =   2.00000
 APT charges with hydrogens summed into heavy atoms:
               1
     1  Mo   0.121075
     2  O    0.229643
     3  N    0.111948
     4  N    0.077156
     5  N    0.003204
     6  N    0.115122
     7  C   -1.106112
     8  N   -0.308454
     9  C   -0.214648
    10  C   -1.202602
    11  C   -0.747561
    12  C    0.695014
    14  C    0.496935
    16  C   -1.697880
    17  C   -0.202941
    21  C    0.684159
    23  C   -0.247255
    27  C    0.524525
    29  C    0.590923
    31  C    0.333815
    33  C   -0.687035
    34  C   -0.635873
    36  C   -0.167640
    37  C   -0.488222
    38  C    1.048967
    40  C    0.630137
    42  C   -0.431428
    44  C    0.954212
    45  C    0.932406
    47  C    0.754394
    49  C    0.481327
    51  C   -0.594561
    53  C    0.640523
    55  C    1.051209
    57  C    0.885778
    59  C   -0.256257
    64  O    0.343379
    65  C   -0.617846
    66  O   -0.099536
 Electronic spatial extent (au):  <R**2>=          14562.4055
 Charge=              2.0000 electrons
 Dipole moment (field-independent basis, Debye):
    X=             -0.8944    Y=              0.2285    Z=              7.0467  Tot=              7.1069
 Quadrupole moment (field-independent basis, Debye-Ang):
   XX=           -120.3384   YY=           -147.1988   ZZ=           -198.4752
   XY=              9.7913   XZ=              6.3797   YZ=             -5.4238
 Traceless Quadrupole moment (field-independent basis, Debye-Ang):
   XX=             34.9991   YY=              8.1386   ZZ=            -43.1377
   XY=              9.7913   XZ=              6.3797   YZ=             -5.4238
 Octapole moment (field-independent basis, Debye-Ang**2):
  XXX=            -64.4025  YYY=             57.0867  ZZZ=            297.2705  XYY=            -28.7328
  XXY=             42.4050  XXZ=            124.3680  XZZ=            -50.1857  YZZ=             48.4721
  YYZ=            -69.4279  XYZ=            -52.3708
 Hexadecapole moment (field-independent basis, Debye-Ang**3):
 XXXX=          -6749.8252 YYYY=          -4418.2243 ZZZZ=          -4805.2525 XXXY=            111.8694
 XXXZ=            269.3908 YYYX=            -47.1706 YYYZ=           -227.8158 ZZZX=            348.6350
 ZZZY=           -250.8698 XXYY=          -1193.4589 XXZZ=          -2108.8300 YYZZ=          -1692.1476
 XXYZ=           -124.9342 YYXZ=            133.3618 ZZXY=            205.2336
 N-N= 4.917981470490D+03 E-N=-1.376822003260D+04  KE= 1.668545596468D+03
  Exact polarizability:   0.000   0.000   0.000   0.000   0.000   0.000
 Approx polarizability: 970.687  23.852 899.212 -32.854  -4.1291002.943
                          Isotropic Fermi Contact Couplings
        Atom                 a.u.       MegaHertz       Gauss      10(-4) cm-1
     1  Mo(95)            -0.00000       0.00019       0.00007       0.00006
     2  O(17)              0.03163      -9.58563      -3.42039      -3.19742
     3  N(14)             -0.02725      -4.40191      -1.57071      -1.46832
     4  N(14)             -0.02806      -4.53284      -1.61743      -1.51199
     5  N(14)             -0.02296      -3.70934      -1.32358      -1.23730
     6  N(14)             -0.02133      -3.44650      -1.22980      -1.14963
     7  C(13)              0.00788       4.42764       1.57989       1.47690
     8  N(14)             -0.02238      -3.61494      -1.28990      -1.20581
     9  C(13)             -0.00208      -1.17029      -0.41759      -0.39037
    10  C(13)              0.00396       2.22749       0.79482       0.74301
    11  C(13)              0.00742       4.17299       1.48903       1.39196
    12  C(13)             -0.00099      -0.55424      -0.19777      -0.18487
    13  H(1)               0.00038       0.85660       0.30566       0.28573
    14  C(13)             -0.00360      -2.02305      -0.72187      -0.67482
    15  H(1)               0.00016       0.35372       0.12622       0.11799
    16  C(13)              0.00630       3.54028       1.26326       1.18091
    17  C(13)              0.00018       0.10260       0.03661       0.03422
    18  H(1)              -0.00003      -0.06042      -0.02156      -0.02015
    19  H(1)              -0.00003      -0.07105      -0.02535      -0.02370
    20  H(1)              -0.00003      -0.07480      -0.02669      -0.02495
    21  C(13)             -0.00105      -0.59122      -0.21096      -0.19721
    22  H(1)              -0.00001      -0.03150      -0.01124      -0.01051
    23  C(13)              0.00010       0.05875       0.02096       0.01960
    24  H(1)              -0.00004      -0.09156      -0.03267      -0.03054
    25  H(1)              -0.00003      -0.06138      -0.02190      -0.02048
    26  H(1)              -0.00001      -0.01906      -0.00680      -0.00636
    27  C(13)             -0.00298      -1.67368      -0.59721      -0.55828
    28  H(1)               0.00010       0.21313       0.07605       0.07109
    29  C(13)             -0.00074      -0.41667      -0.14868      -0.13899
    30  H(1)               0.00006       0.12786       0.04562       0.04265
    31  C(13)             -0.00068      -0.38208      -0.13634      -0.12745
    32  H(1)               0.00012       0.27095       0.09668       0.09038
    33  C(13)              0.00833       4.68386       1.67132       1.56237
    34  C(13)              0.00621       3.49015       1.24537       1.16419
    35  H(1)              -0.00015      -0.33695      -0.12023      -0.11240
    36  C(13)             -0.00183      -1.02855      -0.36701      -0.34309
    37  C(13)              0.00733       4.12167       1.47072       1.37484
    38  C(13)              0.00195       1.09883       0.39209       0.36653
    39  H(1)              -0.00025      -0.55113      -0.19666      -0.18384
    40  C(13)             -0.00063      -0.35207      -0.12563      -0.11744
    41  H(1)               0.00005       0.11836       0.04223       0.03948
    42  C(13)              0.00454       2.55153       0.91045       0.85110
    43  H(1)              -0.00076      -1.69960      -0.60646      -0.56692
    44  C(13)              0.00267       1.50032       0.53535       0.50045
    45  C(13)              0.00543       3.05186       1.08898       1.01799
    46  H(1)              -0.00064      -1.43968      -0.51371      -0.48023
    47  C(13)             -0.00367      -2.06054      -0.73525      -0.68732
    48  H(1)               0.00057       1.27510       0.45499       0.42533
    49  C(13)             -0.00019      -0.10419      -0.03718      -0.03475
    50  H(1)               0.00005       0.11383       0.04062       0.03797
    51  C(13)              0.00392       2.20478       0.78672       0.73544
    52  H(1)              -0.00031      -0.68209      -0.24339      -0.22752
    53  C(13)             -0.00070      -0.39611      -0.14134      -0.13213
    54  H(1)               0.00007       0.16388       0.05848       0.05466
    55  C(13)              0.00204       1.14912       0.41004       0.38331
    56  H(1)              -0.00017      -0.37082      -0.13232      -0.12369
    57  C(13)              0.00656       3.68866       1.31621       1.23041
    58  H(1)              -0.00078      -1.73948      -0.62069      -0.58023
    59  C(13)              0.01717       9.64933       3.44312       3.21867
    60  H(1)              -0.00049      -1.09849      -0.39197      -0.36642
    61  H(1)              -0.00036      -0.80075      -0.28573      -0.26710
    62  H(1)              -0.00606     -13.53270      -4.82880      -4.51402
    63  H(1)              -0.00020      -0.43820      -0.15636      -0.14617
    64  O(17)             -0.00233       0.70673       0.25218       0.23574
    65  C(13)              0.00517       2.90722       1.03737       0.96975
    66  O(17)             -0.00341       1.03341       0.36875       0.34471
 --------------------------------------------------------
       Center         ----  Spin Dipole Couplings  ----
                      3XX-RR        3YY-RR        3ZZ-RR
 --------------------------------------------------------
     1   Atom        0.074926      0.029405     -0.104330
     2   Atom        0.435566      0.016929     -0.452495
     3   Atom       -0.009206      0.014796     -0.005590
     4   Atom       -0.003105      0.006861     -0.003756
     5   Atom        0.003427      0.003343     -0.006770
     6   Atom       -0.003889      0.007957     -0.004068
     7   Atom        0.015345     -0.008452     -0.006894
     8   Atom        0.007030     -0.017215      0.010185
     9   Atom        0.004698     -0.007042      0.002344
    10   Atom       -0.001474     -0.005881      0.007355
    11   Atom       -0.003047     -0.006005      0.009052
    12   Atom       -0.002126      0.003328     -0.001202
    13   Atom       -0.000161      0.001340     -0.001179
    14   Atom       -0.000743     -0.000226      0.000969
    15   Atom        0.001309     -0.000416     -0.000893
    16   Atom        0.010394     -0.004905     -0.005489
    17   Atom        0.001872     -0.002463      0.000591
    18   Atom        0.000781     -0.001710      0.000929
    19   Atom        0.000791     -0.001694      0.000903
    20   Atom        0.002415     -0.001837     -0.000578
    21   Atom        0.001732      0.000049     -0.001781
    22   Atom        0.001749     -0.000866     -0.000883
    23   Atom        0.001794     -0.002500      0.000706
    24   Atom        0.000725     -0.001729      0.001004
    25   Atom        0.000558     -0.001662      0.001104
    26   Atom        0.002288     -0.001886     -0.000402
    27   Atom        0.001904     -0.000802     -0.001102
    28   Atom        0.001644     -0.000698     -0.000946
    29   Atom        0.000245     -0.008310      0.008065
    30   Atom       -0.000936     -0.001955      0.002891
    31   Atom       -0.000144     -0.008277      0.008422
    32   Atom       -0.000974     -0.001968      0.002942
    33   Atom       -0.010397      0.004889      0.005508
    34   Atom       -0.002074      0.002322     -0.000247
    35   Atom       -0.006721      0.014922     -0.008201
    36   Atom        0.005121     -0.007045      0.001924
    37   Atom       -0.008073      0.003427      0.004646
    38   Atom       -0.001217     -0.001779      0.002995
    39   Atom        0.001155      0.000318     -0.001473
    40   Atom        0.002584      0.001233     -0.003818
    41   Atom        0.001793     -0.000702     -0.001091
    42   Atom        0.002181      0.003889     -0.006070
    43   Atom       -0.002606      0.004570     -0.001965
    44   Atom       -0.010986      0.015737     -0.004751
    45   Atom        0.002333      0.002641     -0.004974
    46   Atom        0.002125      0.001079     -0.003203
    47   Atom        0.000729      0.000635     -0.001364
    48   Atom        0.000309      0.001115     -0.001424
    49   Atom        0.001339      0.004123     -0.005461
    50   Atom       -0.000438      0.002437     -0.001999
    51   Atom       -0.001050     -0.000425      0.001475
    52   Atom       -0.006845      0.013560     -0.006715
    53   Atom        0.000590      0.003901     -0.004490
    54   Atom       -0.000228      0.002179     -0.001951
    55   Atom       -0.002023     -0.003302      0.005325
    56   Atom        0.000877      0.000455     -0.001332
    57   Atom        0.009971      0.003775     -0.013745
    58   Atom        0.002106      0.001947     -0.004054
    59   Atom        0.015642      0.009050     -0.024692
    60   Atom       -0.005883      0.002755      0.003128
    61   Atom       -0.014783     -0.015673      0.030456
    62   Atom       -0.002498     -0.008035      0.010534
    63   Atom       -0.002307     -0.001202      0.003509
    64   Atom        0.036732      0.036209     -0.072941
    65   Atom       -0.000226     -0.003402      0.003627
    66   Atom        0.032587      0.033506     -0.066093
 --------------------------------------------------------
                        XY            XZ            YZ
 --------------------------------------------------------
     1   Atom        0.136711      0.003239      0.035005
     2   Atom        0.631058      0.101949      0.054341
     3   Atom        0.022226     -0.019041      0.013273
     4   Atom        0.002981      0.011347      0.004672
     5   Atom        0.023160      0.012395     -0.015859
     6   Atom       -0.001903     -0.011123     -0.002014
     7   Atom       -0.014785      0.014262     -0.020654
     8   Atom        0.000616     -0.001721      0.002084
     9   Atom        0.000687     -0.009699     -0.000187
    10   Atom       -0.005884     -0.002994      0.006840
    11   Atom       -0.006314      0.005971     -0.008547
    12   Atom        0.016929     -0.006114      0.006156
    13   Atom        0.003131      0.000603      0.001516
    14   Atom        0.011061     -0.006752      0.003767
    15   Atom        0.002349     -0.001760     -0.000456
    16   Atom       -0.009707     -0.009220      0.018625
    17   Atom        0.000061      0.003788     -0.000113
    18   Atom       -0.000497      0.002670     -0.000557
    19   Atom        0.000781      0.002699      0.000696
    20   Atom        0.000016      0.002427     -0.000058
    21   Atom       -0.003475     -0.003815      0.000032
    22   Atom       -0.001545     -0.001872      0.000698
    23   Atom        0.000118     -0.003627     -0.000169
    24   Atom       -0.000419     -0.002636      0.000481
    25   Atom        0.000853     -0.002692     -0.000813
    26   Atom        0.000194     -0.002527     -0.000023
    27   Atom        0.008567      0.005936     -0.003665
    28   Atom        0.002007      0.001698      0.000271
    29   Atom        0.001214      0.001436      0.001020
    30   Atom        0.000202      0.001670      0.000226
    31   Atom        0.001450     -0.001436     -0.000220
    32   Atom        0.000174     -0.001590     -0.000097
    33   Atom       -0.007310      0.007267     -0.006396
    34   Atom       -0.011544     -0.008475      0.000425
    35   Atom       -0.005525      0.000463      0.004170
    36   Atom        0.000245      0.010450     -0.000076
    37   Atom       -0.008985     -0.006912      0.006745
    38   Atom        0.002150      0.007116      0.008726
    39   Atom       -0.002466     -0.000305      0.000860
    40   Atom       -0.004210      0.004626      0.000336
    41   Atom       -0.001778      0.001789     -0.000796
    42   Atom       -0.015171     -0.016387      0.003539
    43   Atom        0.011828     -0.001997     -0.008545
    44   Atom       -0.003557      0.000212     -0.000722
    45   Atom       -0.019298     -0.019637      0.021275
    46   Atom        0.003690     -0.000474      0.001153
    47   Atom        0.011322      0.005529     -0.007027
    48   Atom        0.002968     -0.000513     -0.001302
    49   Atom       -0.005176      0.002471      0.001512
    50   Atom       -0.002222      0.000071      0.000253
    51   Atom       -0.009323      0.011464      0.002846
    52   Atom       -0.007483      0.001051     -0.004115
    53   Atom       -0.005681     -0.003428     -0.001546
    54   Atom       -0.002576      0.000005     -0.000241
    55   Atom        0.000206     -0.006854     -0.007118
    56   Atom       -0.002452      0.000304     -0.000818
    57   Atom       -0.028670      0.023655     -0.022321
    58   Atom        0.004065      0.000525     -0.001433
    59   Atom       -0.014999      0.025226     -0.006287
    60   Atom        0.007811      0.004878      0.009849
    61   Atom        0.002177     -0.010158      0.007084
    62   Atom       -0.014719     -0.028033      0.023959
    63   Atom       -0.000190      0.000059      0.000139
    64   Atom        0.005070      0.029790     -0.018482
    65   Atom       -0.000045     -0.007407      0.005674
    66   Atom        0.006849      0.023260     -0.004565
 --------------------------------------------------------


 ---------------------------------------------------------------------------------
              Anisotropic Spin Dipole Couplings in Principal Axis System
 ---------------------------------------------------------------------------------

       Atom             a.u.   MegaHertz   Gauss  10(-4) cm-1        Axes

              Baa    -0.1229     4.294     1.532     1.432  0.3101 -0.4684  0.8273
     1 Mo(95) Bbb    -0.0700     2.444     0.872     0.815 -0.5773  0.5987  0.5553
              Bcc     0.1929    -6.738    -2.404    -2.247  0.7554  0.6498  0.0848
 
              Baa    -0.4699    34.002    12.133    11.342 -0.3214  0.3170  0.8923
     2 O(17)  Bbb    -0.4309    31.179    11.125    10.400 -0.4930  0.7485 -0.4435
              Bcc     0.9008   -65.181   -23.258   -21.742  0.8085  0.5824  0.0843
 
              Baa    -0.0387    -1.492    -0.532    -0.498  0.6961 -0.4317  0.5737
     3 N(14)  Bbb     0.0105     0.405     0.145     0.135 -0.5312  0.2278  0.8160
              Bcc     0.0282     1.086     0.388     0.362  0.4830  0.8728  0.0707
 
              Baa    -0.0149    -0.573    -0.205    -0.191 -0.6849 -0.0621  0.7260
     4 N(14)  Bbb     0.0020     0.078     0.028     0.026 -0.5222  0.7367 -0.4296
              Bcc     0.0128     0.495     0.177     0.165  0.5082  0.6733  0.5371
 
              Baa    -0.0343    -1.324    -0.472    -0.441 -0.5544  0.5887  0.5883
     5 N(14)  Bbb     0.0075     0.291     0.104     0.097  0.4876 -0.3431  0.8028
              Bcc     0.0268     1.033     0.369     0.345  0.6745  0.7319 -0.0968
 
[...]
    23   Atom        0.000085     -0.003724     -0.000053
    24   Atom       -0.000493     -0.002649      0.000554
    25   Atom        0.000781     -0.002709     -0.000768
    26   Atom        0.000114     -0.002487     -0.000014
    27   Atom        0.008632      0.005954     -0.003923
    28   Atom        0.002023      0.001718      0.000293
    29   Atom        0.000992      0.001760      0.001431
    30   Atom        0.000149      0.001779      0.000289
    31   Atom        0.000663     -0.001916      0.000267
    32   Atom        0.000097     -0.001720     -0.000009
    33   Atom       -0.002699      0.007951     -0.005657
    34   Atom       -0.003816     -0.019744     -0.007977
    35   Atom       -0.004262     -0.000855      0.006005
    36   Atom        0.000489      0.010638     -0.000257
    37   Atom       -0.008749     -0.007746      0.003137
    38   Atom        0.000459      0.003283      0.004969
    39   Atom       -0.002070     -0.000387      0.000631
    40   Atom       -0.005220      0.006283      0.001340
    41   Atom       -0.001709      0.001835     -0.000666
    42   Atom       -0.014584     -0.017544      0.006334
    43   Atom        0.011099     -0.001783     -0.008626
    44   Atom       -0.001213     -0.000118      0.000375
    45   Atom       -0.019367     -0.019002      0.021318
    46   Atom        0.003650     -0.000453      0.001191
    47   Atom        0.011015      0.005757     -0.006887
    48   Atom        0.003022     -0.000495     -0.001241
    49   Atom       -0.005575      0.005565      0.002950
    50   Atom       -0.002239      0.000117      0.000229
    51   Atom       -0.011417      0.007365     -0.003397
    52   Atom       -0.007920      0.001490     -0.005017
    53   Atom       -0.005459     -0.002467      0.000521
    54   Atom       -0.002553      0.000119     -0.000454
    55   Atom        0.005120     -0.016154     -0.014130
    56   Atom       -0.003182      0.000126     -0.001366
    57   Atom       -0.025759      0.021856     -0.020160
    58   Atom        0.003682      0.000318     -0.001473
    59   Atom       -0.014677      0.024209     -0.011920
    60   Atom        0.005495      0.003735      0.009072
    61   Atom        0.000530     -0.007443      0.013396
    62   Atom       -0.005419     -0.017304      0.056568
    63   Atom       -0.000080      0.000024      0.000138
    64   Atom       -0.001449     -0.002431      0.002406
    65   Atom       -0.001299     -0.002888      0.002570
    66   Atom       -0.000923     -0.001706      0.002065
 --------------------------------------------------------


 ---------------------------------------------------------------------------------
              Anisotropic Spin Dipole Couplings in Principal Axis System
 ---------------------------------------------------------------------------------

       Atom             a.u.   MegaHertz   Gauss  10(-4) cm-1        Axes

              Baa    -0.0898     3.137     1.119     1.046 -0.2903  0.6884  0.6648
     1 Mo(95) Bbb    -0.0660     2.304     0.822     0.769  0.5434 -0.4533  0.7066
              Bcc     0.1558    -5.441    -1.941    -1.815  0.7877  0.5663 -0.2425
 
              Baa    -0.3461    25.042     8.936     8.353  0.2683 -0.6470  0.7137
     2 O(17)  Bbb    -0.2292    16.583     5.917     5.532 -0.3428  0.6283  0.6984
              Bcc     0.5753   -41.625   -14.853   -13.885  0.9003  0.4321  0.0532
 
              Baa    -0.0384    -1.482    -0.529    -0.494 -0.6006  0.6030 -0.5251
     3 N(14)  Bbb     0.0143     0.553     0.197     0.185 -0.5375  0.1816  0.8235
              Bcc     0.0241     0.929     0.332     0.310  0.5919  0.7768  0.2150
 
              Baa    -0.0239    -0.921    -0.329    -0.307 -0.5896 -0.2673  0.7622
     4 N(14)  Bbb     0.0082     0.314     0.112     0.105  0.7406 -0.5555  0.3780
              Bcc     0.0157     0.607     0.217     0.202  0.3224  0.7873  0.5255
 
              Baa    -0.0406    -1.565    -0.558    -0.522 -0.5777  0.5721  0.5823
     5 N(14)  Bbb     0.0129     0.499     0.178     0.167  0.5040 -0.3111  0.8057
              Bcc     0.0276     1.065     0.380     0.355  0.6421  0.7589 -0.1086
 
              Baa    -0.0201    -0.774    -0.276    -0.258  0.6694  0.3067  0.6766
     6 N(14)  Bbb    -0.0052    -0.202    -0.072    -0.067 -0.5005 -0.4868  0.7159
              Bcc     0.0253     0.977     0.348     0.326 -0.5490  0.8179  0.1723
 
              Baa    -0.0298    -4.002    -1.428    -1.335 -0.0113  0.6667  0.7452
     7 C(13)  Bbb    -0.0053    -0.708    -0.253    -0.236  0.6850  0.5481 -0.4800
              Bcc     0.0351     4.709     1.680     1.571  0.7285 -0.5051  0.4629
 
              Baa    -0.0163    -0.627    -0.224    -0.209 -0.0097  0.9973 -0.0727
     8 N(14)  Bbb     0.0058     0.223     0.080     0.074  0.9851 -0.0030 -0.1722
              Bcc     0.0105     0.404     0.144     0.135  0.1720  0.0733  0.9824
 
              Baa    -0.0076    -1.014    -0.362    -0.338  0.6464  0.1288  0.7521
     9 C(13)  Bbb    -0.0068    -0.919    -0.328    -0.306 -0.1049  0.9913 -0.0796
              Bcc     0.0144     1.933     0.690     0.645  0.7558  0.0275 -0.6542
 
              Baa    -0.0100    -1.337    -0.477    -0.446  0.5064  0.8589 -0.0767
    10 C(13)  Bbb    -0.0002    -0.033    -0.012    -0.011  0.5592 -0.2593  0.7875
              Bcc     0.0102     1.370     0.489     0.457  0.6564 -0.4417 -0.6116
 
              Baa    -0.0204    -2.737    -0.977    -0.913  0.3938  0.8366  0.3809
    11 C(13)  Bbb    -0.0020    -0.267    -0.095    -0.089  0.9133 -0.4028 -0.0594
              Bcc     0.0224     3.004     1.072     1.002 -0.1037 -0.3713  0.9227
 
              Baa    -0.0177    -2.380    -0.849    -0.794 -0.6304  0.6384 -0.4416
    12 C(13)  Bbb     0.0041     0.549     0.196     0.183 -0.3808  0.2413  0.8926
              Bcc     0.0136     1.831     0.653     0.611  0.6764  0.7309  0.0910
 
              Baa    -0.0024    -1.268    -0.452    -0.423  0.6573 -0.6549  0.3730
    13 H(1)   Bbb    -0.0013    -0.713    -0.255    -0.238 -0.4355  0.0738  0.8972
              Bcc     0.0037     1.981     0.707     0.661  0.6151  0.7521  0.2366
 
              Baa    -0.0162    -2.172    -0.775    -0.725  0.6509 -0.5928  0.4744
    14 C(13)  Bbb     0.0040     0.538     0.192     0.180 -0.1605  0.5033  0.8491
              Bcc     0.0122     1.634     0.583     0.545  0.7420  0.6288 -0.2325
 
              Baa    -0.0024    -1.261    -0.450    -0.420  0.5986 -0.5929  0.5387
    15 H(1)   Bbb    -0.0012    -0.621    -0.221    -0.207 -0.0680  0.6324  0.7716
              Bcc     0.0035     1.881     0.671     0.627  0.7981  0.4985 -0.3383
 
              Baa    -0.0255    -3.428    -1.223    -1.143 -0.0725  0.7797 -0.6220
    16 C(13)  Bbb    -0.0031    -0.414    -0.148    -0.138  0.7800  0.4330  0.4518
              Bcc     0.0286     3.842     1.371     1.282 -0.6215  0.4524  0.6395
 
              Baa    -0.0026    -0.351    -0.125    -0.117 -0.6297  0.2559  0.7335
    17 C(13)  Bbb    -0.0025    -0.333    -0.119    -0.111  0.1621  0.9667 -0.1980
              Bcc     0.0051     0.684     0.244     0.228  0.7597  0.0058  0.6502
 
              Baa    -0.0018    -0.984    -0.351    -0.328 -0.6454  0.3595  0.6739
    18 H(1)   Bbb    -0.0018    -0.975    -0.348    -0.325  0.3483  0.9238 -0.1593
              Bcc     0.0037     1.959     0.699     0.654  0.6798 -0.1319  0.7215
 
              Baa    -0.0020    -1.046    -0.373    -0.349 -0.5731  0.7426  0.3466
    19 H(1)   Bbb    -0.0018    -0.972    -0.347    -0.324  0.4588  0.6411 -0.6152
              Bcc     0.0038     2.018     0.720     0.673  0.6790  0.1936  0.7081
 
              Baa    -0.0020    -1.054    -0.376    -0.351 -0.4651  0.3652  0.8064
    20 H(1)   Bbb    -0.0018    -0.979    -0.349    -0.326  0.1780  0.9309 -0.3189
              Bcc     0.0038     2.032     0.725     0.678  0.8672  0.0048  0.4979
 
              Baa    -0.0033    -0.438    -0.156    -0.146  0.5676  0.5746  0.5896
    21 C(13)  Bbb    -0.0015    -0.204    -0.073    -0.068 -0.0484 -0.6916  0.7206
              Bcc     0.0048     0.642     0.229     0.214  0.8219 -0.4376 -0.3648
 
              Baa    -0.0018    -0.961    -0.343    -0.321  0.5443  0.3161  0.7771
    22 H(1)   Bbb    -0.0016    -0.874    -0.312    -0.292  0.1537  0.8730 -0.4628
              Bcc     0.0034     1.835     0.655     0.612  0.8247 -0.3713 -0.4266
 
              Baa    -0.0026    -0.345    -0.123    -0.115 -0.1224  0.9849 -0.1224
    23 C(13)  Bbb    -0.0025    -0.333    -0.119    -0.111  0.6413  0.1727  0.7476
              Bcc     0.0050     0.678     0.242     0.226  0.7574  0.0130 -0.6528
 
              Baa    -0.0018    -0.974    -0.347    -0.325 -0.4734  0.6666 -0.5758
    24 H(1)   Bbb    -0.0018    -0.950    -0.339    -0.317  0.5596  0.7324  0.3879
              Bcc     0.0036     1.923     0.686     0.642 -0.6803  0.1386  0.7197
 
              Baa    -0.0019    -1.040    -0.371    -0.347 -0.5556  0.7756 -0.2995
    25 H(1)   Bbb    -0.0018    -0.977    -0.349    -0.326  0.5015  0.6000  0.6233
              Bcc     0.0038     2.018     0.720     0.673 -0.6631 -0.1961  0.7224
 
              Baa    -0.0019    -1.034    -0.369    -0.345  0.3981 -0.6459  0.6515
    26 H(1)   Bbb    -0.0018    -0.985    -0.351    -0.329  0.3159  0.7632  0.5636
              Bcc     0.0038     2.019     0.721     0.674  0.8612  0.0185 -0.5079
 
              Baa    -0.0124    -1.664    -0.594    -0.555 -0.5842  0.6169  0.5275
    27 C(13)  Bbb     0.0026     0.342     0.122     0.114  0.1512 -0.5558  0.8175
              Bcc     0.0099     1.322     0.472     0.441  0.7974  0.5573  0.2314
 
              Baa    -0.0023    -1.229    -0.438    -0.410 -0.5564  0.5767  0.5982
    28 H(1)   Bbb    -0.0011    -0.602    -0.215    -0.201  0.0581 -0.6912  0.7203
              Bcc     0.0034     1.831     0.653     0.611  0.8289  0.4355  0.3511
 
              Baa    -0.0063    -0.849    -0.303    -0.283 -0.1460  0.9854 -0.0881
    29 C(13)  Bbb    -0.0010    -0.136    -0.048    -0.045  0.9630  0.1211 -0.2408
              Bcc     0.0073     0.985     0.351     0.329  0.2266  0.1200  0.9666
 
              Baa    -0.0019    -1.039    -0.371    -0.346 -0.1390  0.9903 -0.0080
    30 H(1)   Bbb    -0.0017    -0.891    -0.318    -0.297  0.9219  0.1265 -0.3662
              Bcc     0.0036     1.930     0.689     0.644  0.3616  0.0583  0.9305
 
              Baa    -0.0065    -0.879    -0.314    -0.293 -0.1217  0.9919 -0.0367
    31 C(13)  Bbb    -0.0009    -0.126    -0.045    -0.042  0.9654  0.1269  0.2278
              Bcc     0.0075     1.005     0.358     0.335 -0.2306  0.0077  0.9730
 
              Baa    -0.0019    -1.039    -0.371    -0.347 -0.2591  0.9617 -0.0900
    32 H(1)   Bbb    -0.0016    -0.862    -0.307    -0.287  0.8988  0.2742  0.3421
              Bcc     0.0036     1.901     0.678     0.634 -0.3536 -0.0077  0.9354
 
              Baa    -0.0079    -1.063    -0.379    -0.355  0.8481 -0.1283 -0.5140
    33 C(13)  Bbb    -0.0054    -0.729    -0.260    -0.243  0.2883  0.9258  0.2446
              Bcc     0.0134     1.792     0.639     0.598  0.4445 -0.3556  0.8222
 
              Baa    -0.0225    -3.015    -1.076    -1.006  0.7067  0.3640  0.6066
    34 C(13)  Bbb     0.0007     0.091     0.032     0.030 -0.3917  0.9154 -0.0930
              Bcc     0.0218     2.924     1.043     0.975 -0.5891 -0.1719  0.7895
 
              Baa    -0.0081    -4.324    -1.543    -1.442 -0.2051 -0.3322  0.9206
    35 H(1)   Bbb    -0.0059    -3.159    -1.127    -1.054  0.9534  0.1448  0.2646
              Bcc     0.0140     7.484     2.670     2.496 -0.2213  0.9320  0.2871
 
              Baa    -0.0077    -1.028    -0.367    -0.343 -0.5199  0.6131  0.5948
    36 C(13)  Bbb    -0.0066    -0.885    -0.316    -0.295  0.3943  0.7900 -0.4695
              Bcc     0.0143     1.913     0.683     0.638  0.7577  0.0096  0.6525
 
              Baa    -0.0132    -1.777    -0.634    -0.593  0.7947  0.5675  0.2154
    37 C(13)  Bbb    -0.0007    -0.100    -0.036    -0.033 -0.3383  0.7086 -0.6192
              Bcc     0.0140     1.877     0.670     0.626 -0.5040  0.4192  0.7552
 
              Baa    -0.0061    -0.814    -0.290    -0.272 -0.3264 -0.5750  0.7503
    38 C(13)  Bbb     0.0001     0.012     0.004     0.004  0.8265 -0.5588 -0.0687
              Bcc     0.0060     0.802     0.286     0.268  0.4587  0.5977  0.6576
 
              Baa    -0.0017    -0.891    -0.318    -0.297 -0.3571 -0.5964  0.7189
    39 H(1)   Bbb    -0.0012    -0.648    -0.231    -0.216  0.5621  0.4775  0.6753
              Bcc     0.0029     1.539     0.549     0.513  0.7460 -0.6452 -0.1647
 
              Baa    -0.0095    -1.277    -0.456    -0.426 -0.5688 -0.3366  0.7504
    40 C(13)  Bbb     0.0011     0.144     0.051     0.048  0.3235  0.7473  0.5804
              Bcc     0.0084     1.133     0.404     0.378  0.7561 -0.5730  0.3162
 
              Baa    -0.0021    -1.104    -0.394    -0.368 -0.5113 -0.2013  0.8355
    41 H(1)   Bbb    -0.0013    -0.704    -0.251    -0.235  0.2762  0.8821  0.3816
              Bcc     0.0034     1.808     0.645     0.603  0.8138 -0.4259  0.3954
 
              Baa    -0.0219    -2.942    -1.050    -0.981  0.7106  0.2170  0.6693
    42 C(13)  Bbb    -0.0044    -0.585    -0.209    -0.195  0.3070  0.7603 -0.5724
              Bcc     0.0263     3.527     1.258     1.176  0.6331 -0.6122 -0.4737
 
              Baa    -0.0122    -6.529    -2.330    -2.178  0.6564 -0.6177 -0.4332
    43 H(1)   Bbb    -0.0045    -2.384    -0.850    -0.795  0.5833  0.0514  0.8106
              Bcc     0.0167     8.913     3.180     2.973  0.4785  0.7847 -0.3940
 
              Baa    -0.0076    -1.021    -0.364    -0.340  0.9971  0.0747  0.0136
    44 C(13)  Bbb    -0.0010    -0.137    -0.049    -0.046 -0.0106 -0.0407  0.9991
              Bcc     0.0086     1.157     0.413     0.386 -0.0752  0.9964  0.0398
 
              Baa    -0.0235    -3.151    -1.124    -1.051  0.2788 -0.4619  0.8419
    45 C(13)  Bbb    -0.0166    -2.221    -0.793    -0.741  0.7670  0.6347  0.0943
              Bcc     0.0400     5.372     1.917     1.792 -0.5780  0.6195  0.5313
 
              Baa    -0.0040    -2.121    -0.757    -0.707  0.3208 -0.4269  0.8455
    46 H(1)   Bbb    -0.0013    -0.710    -0.253    -0.237 -0.5855  0.6122  0.5314
              Bcc     0.0053     2.830     1.010     0.944  0.7445  0.6655  0.0535
 
              Baa    -0.0158    -2.121    -0.757    -0.708 -0.5891  0.5988  0.5426
    47 C(13)  Bbb     0.0037     0.501     0.179     0.167  0.4527 -0.3117  0.8354
              Bcc     0.0121     1.621     0.578     0.541  0.6693  0.7378 -0.0874
 
              Baa    -0.0025    -1.351    -0.482    -0.451 -0.5947  0.6277  0.5023
    48 H(1)   Bbb    -0.0016    -0.857    -0.306    -0.286  0.5175 -0.1793  0.8367
              Bcc     0.0041     2.208     0.788     0.736  0.6152  0.7576 -0.2182
 
              Baa    -0.0111    -1.489    -0.531    -0.497 -0.5154 -0.3168  0.7962
    49 C(13)  Bbb     0.0019     0.254     0.091     0.085  0.6280  0.4926  0.6025
              Bcc     0.0092     1.235     0.441     0.412 -0.5831  0.8106 -0.0550
 
              Baa    -0.0020    -1.083    -0.386    -0.361 -0.4000 -0.2569  0.8797
    50 H(1)   Bbb    -0.0015    -0.807    -0.288    -0.269  0.7683  0.4293  0.4747
              Bcc     0.0035     1.889     0.674     0.630 -0.4997  0.8658  0.0257
 
              Baa    -0.0136    -1.829    -0.653    -0.610  0.8214  0.4722 -0.3198
    51 C(13)  Bbb    -0.0018    -0.235    -0.084    -0.078  0.0178  0.5393  0.8419
              Bcc     0.0154     2.064     0.736     0.688 -0.5701  0.6973 -0.4346
 
              Baa    -0.0090    -4.823    -1.721    -1.609  0.8943  0.3814  0.2342
    52 H(1)   Bbb    -0.0077    -4.083    -1.457    -1.362 -0.2983  0.1179  0.9472
              Bcc     0.0167     8.906     3.178     2.971 -0.3336  0.9169 -0.2192
 
              Baa    -0.0059    -0.798    -0.285    -0.266  0.6623  0.3075  0.6832
    53 C(13)  Bbb    -0.0023    -0.311    -0.111    -0.104 -0.5232 -0.4630  0.7155
              Bcc     0.0083     1.109     0.396     0.370 -0.5364  0.8313  0.1457
 
              Baa    -0.0020    -1.088    -0.388    -0.363  0.6832  0.4759  0.5538
    54 H(1)   Bbb    -0.0017    -0.929    -0.331    -0.310 -0.5073 -0.2361  0.8288
              Bcc     0.0038     2.017     0.720     0.673 -0.5252  0.8472 -0.0801
 
              Baa    -0.0170    -2.275    -0.812    -0.759  0.4830  0.6287  0.6095
    55 C(13)  Bbb    -0.0104    -1.396    -0.498    -0.466  0.7323 -0.6716  0.1124
              Bcc     0.0274     3.672     1.310     1.225 -0.4800 -0.3921  0.7848
 
              Baa    -0.0030    -1.622    -0.579    -0.541  0.4800  0.6433  0.5965
    56 H(1)   Bbb    -0.0012    -0.622    -0.222    -0.208 -0.5229 -0.3362  0.7833
              Bcc     0.0042     2.244     0.801     0.749  0.7044 -0.6879  0.1750
 
              Baa    -0.0272    -3.656    -1.305    -1.219 -0.2681  0.3701  0.8895
    57 C(13)  Bbb    -0.0198    -2.656    -0.948    -0.886  0.6918  0.7165 -0.0896
              Bcc     0.0470     6.312     2.252     2.106  0.6705 -0.5913  0.4481
 
              Baa    -0.0044    -2.340    -0.835    -0.781 -0.2597  0.3788  0.8883
    58 H(1)   Bbb    -0.0012    -0.641    -0.229    -0.214  0.6470 -0.6147  0.4513
              Bcc     0.0056     2.982     1.064     0.995  0.7169  0.6919 -0.0855
 
              Baa    -0.0325    -4.365    -1.558    -1.456 -0.5528  0.0397  0.8324
    59 C(13)  Bbb    -0.0028    -0.381    -0.136    -0.127  0.5546  0.7631  0.3319
              Bcc     0.0354     4.746     1.693     1.583 -0.6220  0.6451 -0.4438
 
              Baa    -0.0078    -4.177    -1.490    -1.393  0.7602 -0.5907  0.2703
    60 H(1)   Bbb    -0.0061    -3.228    -1.152    -1.077 -0.5586 -0.3820  0.7362
              Bcc     0.0139     7.405     2.642     2.470  0.3316  0.7107  0.6204
 
              Baa    -0.0233   -12.413    -4.429    -4.141 -0.2823  0.9257 -0.2517
    61 H(1)   Bbb    -0.0152    -8.106    -2.893    -2.704  0.9501  0.3061  0.0600
              Bcc     0.0385    20.520     7.322     6.845 -0.1326  0.2222  0.9660
 
              Baa    -0.0460   -24.526    -8.751    -8.181  0.5356 -0.5661  0.6266
    62 H(1)   Bbb    -0.0290   -15.479    -5.523    -5.163  0.8306  0.4873 -0.2696
              Bcc     0.0750    40.005    14.275    13.344 -0.1527  0.6649  0.7312
 
              Baa    -0.0019    -0.992    -0.354    -0.331  0.9921  0.1251 -0.0084
    63 H(1)   Bbb    -0.0012    -0.644    -0.230    -0.215 -0.1253  0.9916 -0.0315
              Bcc     0.0031     1.635     0.583     0.545  0.0044  0.0323  0.9995
 
              Baa    -0.0023     0.169     0.060     0.056 -0.3028  0.7183 -0.6264
    64 O(17)  Bbb    -0.0022     0.162     0.058     0.054  0.8294  0.5224  0.1981
              Bcc     0.0046    -0.331    -0.118    -0.110 -0.4695  0.4596  0.7539
 
              Baa    -0.0029    -0.389    -0.139    -0.130  0.7345  0.6756  0.0632
    65 C(13)  Bbb    -0.0028    -0.374    -0.133    -0.125 -0.5444  0.6424 -0.5394
              Bcc     0.0057     0.764     0.272     0.255 -0.4050  0.3618  0.8397
 
              Baa    -0.0031     0.228     0.081     0.076  0.5967  0.7981 -0.0835
    66 O(17)  Bbb    -0.0023     0.167     0.060     0.056  0.7651 -0.5344  0.3591
              Bcc     0.0055    -0.395    -0.141    -0.132 -0.2420  0.2782  0.9295
 

 ---------------------------------------------------------------------------------


 This type of calculation cannot be archived.


 SIGN SEEN IN A RESTAURANT-
 WE RESERVE THE RIGHT TO SERVE REFUSE TO ANYONE.
 Job cpu time:     261 days 23 hours  4 minutes 44.0 seconds.
 Elapsed time:      16 days  9 hours 39 minutes  6.7 seconds.
 File lengths (MBytes):  RWF=   8488 Int=      0 D2E=      0 Chk=     93 Scr=      1
 Normal termination of Gaussian 16 at Thu Jul 16 15:25:19 2020.
